LAMMPS data file of the system for full atom style

    4950 atoms
    5175 bonds
   10350 angles
   16425 dihedrals
     450 impropers

    4 atom types
    5 bond types
    8 angle types
    6 dihedral types
    1 improper types

    0.000000    50.000000 xlo xhi
    0.000000    50.000000 ylo yhi
    0.000000    50.000000 zlo zhi

 Masses 

    1       1.0080
    2       1.0080
    3      12.0110
    4      12.0110

 Pair Coeffs 

    1       0.0300       2.4200
    2       0.0300       2.5000
    3       0.0660       3.5000
    4       0.0700       3.5500

 Bond Coeffs 

    1     268.0000        1.5290
    2     317.0000        1.5100
    3     340.0000        1.0900
    4     367.0000        1.0800
    5     469.0000        1.4000

 Angle Coeffs 

    1      33.0000      107.8000
    2      35.0000      109.5000
    3      35.0000      120.0000
    4      37.5000      110.7000
    5      58.3500      112.7000
    6      63.0000      114.0000
    7      63.0000      120.0000
    8      70.0000      120.0000

 Dihedral Coeffs 

    1      -0.2500        0.0000       0.0000        0.0000
    2       0.0000        0.0000       0.0000        0.0000
    3       0.0000        0.0000       0.3000        0.0000
    4       0.0000        0.0000       0.4620        0.0000
    5       0.0000        7.2500       0.0000        0.0000
    6       0.8500       -0.2000       0.2000        0.0000

 Improper Coeffs 

    1       2.5000     -1     2

 Atoms 

    1     1     3     -0.05928      26.13200      37.49200     23.37600
    2     1     4     -0.06582      26.91000      36.17500     23.51100
    3     1     4     -0.07468      26.51100      35.18000     24.43500
    4     1     3     -0.13454      25.30700      35.38900     25.33300
    5     1     3     -0.11976      24.30200      36.42100     24.79500
    6     1     3     -0.09081      25.01700      37.74100     24.43700
    7     1     3     -0.15203      26.97900      38.75200     23.05000
    8     1     3     -0.16388      28.23300      38.98200     23.93000
    9     1     3     -0.16610      29.03500      40.24600     23.56300
   10     1     3     -0.15788      28.64500      41.52300     24.33600
   11     1     3     -0.17145      27.27300      42.13800     23.99600
   12     1     3     -0.17560      27.07000      42.51600     22.51500
   13     1     3     -0.18635      28.08100      43.53400     21.95800
   14     1     3     -0.23932      28.03500      44.89900     22.65800
   15     1     3     -0.18425      25.45400      38.48800     25.71900
   16     1     3     -0.19885      24.27400      38.72700     26.67600
   17     1     3     -0.17954      23.54900      37.42100     27.03000
   18     1     3     -0.16637      23.12400      36.65900     25.76300
   19     1     4     -0.13103      27.22600      33.96900     24.52500
   20     1     4     -0.07776      28.32900      33.72100     23.68500
   21     1     4     -0.08308      28.71500      34.69700     22.73700
   22     1     4     -0.12844      27.99600      35.90600     22.64900
   23     1     3     -0.14007      29.87300      34.44600     21.78400
   24     1     3     -0.17895      30.81400      33.31100     22.21600
   25     1     3     -0.17142      30.00000      32.08000     22.62800
   26     1     3     -0.13110      29.09900      32.41700     23.82600
   27     1     1      0.13201      26.92700      33.22200     25.24400
   28     1     1      0.13233      28.28900      36.63300     21.90900
   29     1     2      0.10409      24.80100      34.43200     25.47400
   30     1     2      0.10409      25.68500      35.68000     26.31200
   31     1     2      0.09954      23.88700      36.00800     23.87300
   32     1     2      0.09959      24.27900      38.38600     23.95600
   33     1     2      0.09015      25.56500      37.30700     22.46100
   34     1     2      0.09060      26.32900      39.62300     23.07500
   35     1     2      0.09060      27.30700      38.68800     22.01300
   36     1     2      0.09520      27.99500      38.98900     24.99000
   37     1     2      0.09520      28.89800      38.12700     23.81000
   38     1     2      0.07939      29.02400      40.41800     22.48600
   39     1     2      0.07939      30.08100      40.04600     23.80000
   40     1     2      0.07912      28.68200      41.31500     25.40700
   41     1     2      0.07912      29.41400      42.27800     24.17100
   42     1     2      0.08362      26.48300      41.45700     24.30800
   43     1     2      0.08362      27.12800      43.02400     24.61500
   44     1     2      0.08772      26.06100      42.91300     22.39000
   45     1     2      0.08772      27.10100      41.61600     21.90200
   46     1     2      0.08733      29.09200      43.12700     22.00500
   47     1     2      0.08733      27.87600      43.68100     20.89600
   48     1     2      0.08305      28.33700      44.82400     23.70300
   49     1     2      0.08305      27.03300      45.32700     22.62800
   50     1     2      0.08305      28.71100      45.60500     22.17600
   51     1     2      0.10252      26.24500      37.93300     26.22600
   52     1     2      0.10252      25.87400      39.45900     25.46500
   53     1     2      0.09669      23.56800      39.41900     26.21500
   54     1     2      0.09669      24.62600      39.21500     27.58600
   55     1     2      0.08531      22.67200      37.63700     27.64200
   56     1     2      0.08531      24.19600      36.79500     27.64600
   57     1     2      0.08619      22.66000      35.71000     26.03400
   58     1     2      0.08619      22.35100      37.23200     25.24700
   59     1     2      0.10040      29.44500      34.21300     20.80900
   60     1     2      0.10040      30.44400      35.36700     21.66000
   61     1     2      0.10017      31.42600      33.64200     23.05600
   62     1     2      0.10017      31.50200      33.06500     21.40700
   63     1     2      0.08666      30.65900      31.24800     22.87800
   64     1     2      0.08666      29.38600      31.75100     21.78900
   65     1     2      0.09782      28.39600      31.60100     23.99600
   66     1     2      0.09782      29.70700      32.49700     24.72800
   67     2     3     -0.05928      14.27700      26.05400      7.96300
   68     2     4     -0.06582      13.06900      26.23500      7.03300
   69     2     4     -0.07468      12.72300      25.24600      6.08100
   70     2     3     -0.13454      13.54400      23.97900      5.94100
   71     2     3     -0.11976      14.35600      23.62200      7.19700
   72     2     3     -0.09081      15.19500      24.83000      7.66500
   73     2     3     -0.15203      15.05600      27.34800      8.32500
   74     2     3     -0.16388      15.45000      28.26500      7.14200
   75     2     3     -0.16610      16.22200      29.53300      7.55900
   76     2     3     -0.15788      17.75900      29.40000      7.55800
   77     2     3     -0.17145      18.37000      28.51000      8.65900
   78     2     3     -0.17560      18.02600      28.92200     10.10500
   79     2     3     -0.18635      18.45800      30.34600     10.49700
   80     2     3     -0.23932      19.97500      30.57000     10.44100
   81     2     3     -0.18425      16.37000      25.08400      6.69400
   82     2     3     -0.19885      17.24200      23.83000      6.50500
   83     2     3     -0.17954      16.41500      22.62000      6.05000
   84     2     3     -0.16637      15.23100      22.36700      6.99800
   85     2     4     -0.13103      11.59600      25.42300      5.25300
   86     2     4     -0.07776      10.78600      26.56900      5.37600
   87     2     4     -0.08308      11.10700      27.54700      6.34600
   88     2     4     -0.12844      12.23300      27.36600      7.17300
   89     2     3     -0.14007      10.23100      28.77600      6.53600
   90     2     3     -0.17895       9.29300      29.07300      5.35800
   91     2     3     -0.17142       8.57300      27.79200      4.92000
   92     2     3     -0.13110       9.59400      26.74600      4.44900
   93     2     1      0.13201      11.34900      24.67300      4.51800
   94     2     1      0.13233      12.45500      28.11000      7.92100
   95     2     2      0.10409      12.87800      23.15200      5.69400
   96     2     2      0.10409      14.19500      24.11400      5.07800
   97     2     2      0.09954      13.63400      23.39400      7.98500
   98     2     2      0.09959      15.65100      24.55400      8.61800
   99     2     2      0.09015      13.78200      25.77100      8.89500
  100     2     2      0.09060      15.93300      27.07300      8.90700
  101     2     2      0.09060      14.44900      27.93500      9.01500
  102     2     2      0.09520      16.00400      27.73000      6.37500
  103     2     2      0.09520      14.53900      28.58800      6.63900
  104     2     2      0.07939      15.85800      29.91600      8.51300
  105     2     2      0.07939      15.97700      30.31200      6.83600
  106     2     2      0.07912      18.08400      29.02900      6.58500
  107     2     2      0.07912      18.19300      30.39700      7.63800
  108     2     2      0.08362      18.07200      27.47600      8.49600
  109     2     2      0.08362      19.45400      28.50400      8.53700
  110     2     2      0.08772      18.48700      28.20900     10.79100
  111     2     2      0.08772      16.95300      28.82000     10.26700
  112     2     2      0.08733      17.95000      31.08100      9.87100
  113     2     2      0.08733      18.11400      30.54400     11.51500
  114     2     2      0.08305      20.35500      30.48900      9.42200
  115     2     2      0.08305      20.50700      29.84600     11.05700
  116     2     2      0.08305      20.23300      31.56600     10.80300
  117     2     2      0.10252      15.99400      25.43000      5.73100
  118     2     2      0.10252      17.01100      25.87600      7.07600
  119     2     2      0.09669      17.74300      23.59400      7.44400
  120     2     2      0.09669      18.03300      24.03300      5.78200
  121     2     2      0.08531      17.04800      21.73300      6.00600
  122     2     2      0.08531      16.05500      22.78000      5.03300
  123     2     2      0.08619      14.62500      21.53900      6.63000
  124     2     2      0.08619      15.61500      22.04600      7.96800
  125     2     2      0.10040       9.64200      28.61600      7.44000
  126     2     2      0.10040      10.86400      29.64300      6.72900
  127     2     2      0.10017       9.86900      29.47000      4.52100
  128     2     2      0.10017       8.57300      29.84400      5.63500
  129     2     2      0.08666       7.85900      28.00400      4.12400
  130     2     2      0.08666       7.99900      27.39200      5.75700
  131     2     2      0.09782       9.09700      25.78400      4.31400
  132     2     2      0.09782       9.98500      27.03200      3.47100
  133     3     3     -0.05928      30.00900       1.70600     18.26000
  134     3     4     -0.06582      31.47000       2.16600     18.37000
  135     3     4     -0.07468      32.10600       2.29000     19.62800
  136     3     3     -0.13454      31.35900       1.98600     20.91200
  137     3     3     -0.11976      30.15100       1.05300     20.72200
  138     3     3     -0.09081      29.22800       1.58000     19.60300
  139     3     3     -0.15203      29.18100       2.34300     17.11100
  140     3     3     -0.16388      29.24700       3.88500     16.99100
  141     3     3     -0.16610      28.40500       4.46200     15.83500
  142     3     3     -0.15788      26.96400       4.86700     16.20600
  143     3     3     -0.17145      25.98700       3.71500     16.51300
  144     3     3     -0.17560      25.81100       2.68100     15.38100
  145     3     3     -0.18635      25.30000       3.25500     14.04800
  146     3     3     -0.23932      23.90400       3.88700     14.14100
  147     3     3     -0.18425      28.47300       2.84500     20.07100
  148     3     3     -0.19885      27.69600       2.60100     21.37600
  149     3     3     -0.17954      28.60300       2.06700     22.49300
  150     3     3     -0.16637      29.37400       0.81800     22.03500
  151     3     4     -0.13103      33.45500       2.69100     19.70400
  152     3     4     -0.07776      34.19600       2.94900     18.53300
  153     3     4     -0.08308      33.57600       2.79600     17.27100
  154     3     4     -0.12844      32.22800       2.39400     17.20000
  155     3     3     -0.14007      34.35600       3.02400     15.98500
  156     3     3     -0.17895      35.65500       3.82400     16.16600
  157     3     3     -0.17142      36.45400       3.27200     17.35200
  158     3     3     -0.13110      35.64100       3.40800     18.64800
  159     3     1      0.13201      33.92800       2.80100     20.66700
  160     3     1      0.13233      31.77500       2.26200     16.23000
  161     3     2      0.10409      32.05200       1.53900     21.62600
  162     3     2      0.10409      31.05500       2.94100     21.33900
  163     3     2      0.09954      30.54600       0.08700     20.40000
  164     3     2      0.09959      28.46000       0.82100     19.43700
  165     3     2      0.09015      30.14000       0.66700     17.95100
  166     3     2      0.09060      28.15000       2.00800     17.20100
  167     3     2      0.09060      29.52100       1.92000     16.16500
  168     3     2      0.09520      28.98500       4.38100     17.92300
  169     3     2      0.09520      30.28300       4.17300     16.81600
  170     3     2      0.07939      28.42000       3.79700     14.97100
  171     3     2      0.07939      28.90500       5.37000     15.49400
  172     3     2      0.07912      26.99200       5.54100     17.06300
  173     3     2      0.07912      26.55100       5.46400     15.39300
  174     3     2      0.08362      26.30000       3.20600     17.42300
  175     3     2      0.08362      25.01400       4.14200     16.76100
  176     3     2      0.08772      25.12300       1.90400     15.72100
  177     3     2      0.08772      26.75600       2.16900     15.20700
  178     3     2      0.08733      26.01000       3.98300     13.65300
  179     3     2      0.08733      25.26900       2.44900     13.31300
  180     3     2      0.08305      23.90400       4.76700     14.78400
  181     3     2      0.08305      23.17400       3.18000     14.53600
  182     3     2      0.08305      23.55700       4.20500     13.15700
  183     3     2      0.10252      29.17000       3.67400     20.19600
  184     3     2      0.10252      27.75600       3.15800     19.31400
  185     3     2      0.09669      26.89200       1.88800     21.19100
  186     3     2      0.09669      27.21300       3.52500     21.70000
  187     3     2      0.08531      28.00600       1.83000     23.37500
  188     3     2      0.08531      29.30000       2.84600     22.80600
  189     3     2      0.08619      30.05300       0.48600     22.82100
  190     3     2      0.08619      28.66700       0.00000     21.88600
  191     3     2      0.10040      34.58800       2.04300     15.56900
  192     3     2      0.10040      33.71600       3.52400     15.25900
  193     3     2      0.10017      35.41700       4.87400     16.34400
  194     3     2      0.10017      36.24800       3.79000     15.25200
  195     3     2      0.08666      37.40700       3.79400     17.45100
  196     3     2      0.08666      36.69000       2.22200     17.17600
  197     3     2      0.09782      36.13200       2.85400     19.44800
  198     3     2      0.09782      35.62400       4.45300     18.96000
  199     4     3     -0.05928      29.96200      31.99200     15.96600
  200     4     4     -0.06582      31.00800      32.96000     15.39500
  201     4     4     -0.07468      30.65500      33.93600     14.43200
  202     4     3     -0.13454      29.23100      34.04600     13.92200
  203     4     3     -0.11976      28.18100      33.45800     14.87800
  204     4     3     -0.09081      28.56000      32.01900     15.28600
  205     4     3     -0.15203      30.47000      30.56200     16.29800
  206     4     3     -0.16388      31.28400      29.84900     15.19100
  207     4     3     -0.16610      31.76000      28.43300     15.57400
  208     4     3     -0.15788      30.80900      27.28600     15.17600
  209     4     3     -0.17145      29.48500      27.19200     15.96000
  210     4     3     -0.17560      29.63300      27.04800     17.48800
  211     4     3     -0.18635      30.42700      25.81500     17.95300
  212     4     3     -0.23932      29.78500      24.47900     17.55600
  213     4     3     -0.18425      28.36200      31.04800     14.09900
  214     4     3     -0.19885      26.93400      31.11700     13.53100
  215     4     3     -0.17954      26.54300      32.54700     13.13300
  216     4     3     -0.16637      26.75200      33.52600     14.30000
  217     4     4     -0.13103      31.62700      34.83000     13.94000
  218     4     4     -0.07776      32.95300      34.78400     14.41400
  219     4     4     -0.08308      33.30600      33.83300     15.40000
  220     4     4     -0.12844      32.33200      32.94200     15.89000
  221     4     3     -0.14007      34.71700      33.78200     15.96600
  222     4     3     -0.17895      35.77000      34.49800     15.10700
  223     4     3     -0.17142      35.25900      35.88100     14.69000
  224     4     3     -0.13110      33.98600      35.74200     13.84200
  225     4     1      0.13201      31.35400      35.55900     13.19300
  226     4     1      0.13233      32.61000      32.23600     16.65600
  227     4     2      0.10409      29.00400      35.09700     13.73600
  228     4     2      0.10409      29.20100      33.55200     12.95200
  229     4     2      0.09954      28.19600      34.07400     15.78100
  230     4     2      0.09959      27.84600      31.70300     16.04900
  231     4     2      0.09015      29.77200      32.44100     16.94300
  232     4     2      0.09060      29.62000      29.95400     16.60200
  233     4     2      0.09060      31.09500      30.61600     17.18900
  234     4     2      0.09520      30.74900      29.81500     14.24500
  235     4     2      0.09520      32.17000      30.44500     14.97700
  236     4     2      0.07939      32.02200      28.38200     16.63200
  237     4     2      0.07939      32.69900      28.25600     15.04800
  238     4     2      0.07912      30.58300      27.36300     14.11200
  239     4     2      0.07912      31.34200      26.34000     15.28200
  240     4     2      0.08362      28.86800      28.06000     15.73600
  241     4     2      0.08362      28.91400      26.34600     15.57500
  242     4     2      0.08772      28.63700      27.01900     17.93500
  243     4     2      0.08772      30.10100      27.94500     17.89400
  244     4     2      0.08733      31.45000      25.86100     17.57800
  245     4     2      0.08733      30.51400      25.84900     19.04100
  246     4     2      0.08305      29.77000      24.34700     16.47300
  247     4     2      0.08305      28.75900      24.40800     17.91700
  248     4     2      0.08305      30.34200      23.64100     17.97600
  249     4     2      0.10252      29.09000      31.26000     13.31500
  250     4     2      0.10252      28.54200      30.02300     14.41600
  251     4     2      0.09669      26.23000      30.74300     14.27600
  252     4     2      0.09669      26.84300      30.45300     12.67000
  253     4     2      0.08531      25.50000      32.57100     12.81300
  254     4     2      0.08531      27.12800      32.86200     12.26800
  255     4     2      0.08619      26.52100      34.54400     13.98200
  256     4     2      0.08619      26.03800      33.29200     15.09200
  257     4     2      0.10040      34.68400      34.23800     16.95600
  258     4     2      0.10040      35.00900      32.74200     16.11300
  259     4     2      0.10017      35.98200      33.90400     14.21700
  260     4     2      0.10017      36.70800      34.58300     15.65600
  261     4     2      0.08666      36.02400      36.42200     14.13100
  262     4     2      0.08666      35.04400      36.47500     15.58000
  263     4     2      0.09782      33.52900      36.72300     13.70400
  264     4     2      0.09782      34.24700      35.37900     12.84800
  265     5     3     -0.05928      15.11000      15.37100      7.96400
  266     5     4     -0.06582      16.34400      14.50700      8.26000
  267     5     4     -0.07468      16.81500      13.55700      7.32300
  268     5     3     -0.13454      16.10600      13.35100      5.99800
  269     5     3     -0.11976      15.26500      14.55800      5.55100
  270     5     3     -0.09081      14.30900      15.00400      6.67800
  271     5     3     -0.15203      14.21200      15.71600      9.18400
  272     5     3     -0.16388      13.80600      14.53000     10.09200
  273     5     3     -0.16610      12.91500      14.93000     11.28600
  274     5     3     -0.15788      11.39500      14.84800     11.03200
  275     5     3     -0.17145      10.80400      15.89900     10.07300
  276     5     3     -0.17560      11.04100      17.36900     10.47800
  277     5     3     -0.18635      10.47800      17.76400     11.85400
  278     5     3     -0.23932       8.95200      17.63400     11.95900
  279     5     3     -0.18425      13.16700      13.97800      6.85900
  280     5     3     -0.19885      12.40900      13.72300      5.54500
  281     5     3     -0.17954      13.35200      13.28900      4.41400
  282     5     3     -0.16637      14.50400      14.29200      4.23500
  283     5     4     -0.13103      17.96400      12.79100      7.60700
  284     5     4     -0.07776      18.67200      12.97500      8.81100
  285     5     4     -0.08308      18.22600      13.94500      9.73800
  286     5     4     -0.12844      17.07900      14.71000      9.45000
  287     5     3     -0.14007      18.99000      14.20200     11.02800
  288     5     3     -0.17895      19.95900      13.07800     11.42400
  289     5     3     -0.17142      20.80000      12.65600     10.21400
  290     5     3     -0.13110      19.89100      12.11400      9.10100
  291     5     1      0.13201      18.30700      12.05600      6.89500
  292     5     1      0.13233      16.76100      15.45900     10.15800
  293     5     2      0.10409      16.84800      13.12400      5.23200
  294     5     2      0.10409      15.49100      12.45800      6.10000
  295     5     2      0.09954      15.96200      15.37700      5.36300
  296     5     2      0.09959      13.82900      15.92600      6.34600
  297     5     2      0.09015      15.57900      16.32100      7.70000
  298     5     2      0.09060      13.33200      16.24600      8.82700
  299     5     2      0.09060      14.73600      16.44500      9.80200
  300     5     2      0.09520      13.33500      13.72600      9.53200
  301     5     2      0.09520      14.71100      14.08000     10.49800
  302     5     2      0.07939      13.19800      15.90800     11.67500
  303     5     2      0.07939      13.13200      14.23400     12.09800
  304     5     2      0.07912      11.15000      13.85300     10.65800
  305     5     2      0.07912      10.87900      14.92300     11.99000
  306     5     2      0.08362      11.19100      15.73400      9.06900
  307     5     2      0.08362       9.73100      15.72300      9.98300
  308     5     2      0.08772      10.60500      18.01700      9.71600
  309     5     2      0.08772      12.11000      17.58300     10.45800
  310     5     2      0.08733      10.95500      17.17700     12.64100
  311     5     2      0.08733      10.75300      18.80100     12.05700
  312     5     2      0.08305       8.63100      16.59500     11.87000
  313     5     2      0.08305       8.45000      18.20900     11.18100
  314     5     2      0.08305       8.59700      18.00000     12.92300
  315     5     2      0.10252      13.56100      13.04200      7.25500
  316     5     2      0.10252      12.44600      14.34100      7.59000
  317     5     2      0.09669      11.88200      14.63100      5.24900
  318     5     2      0.09669      11.64100      12.96300      5.70000
  319     5     2      0.08531      12.79400      13.19600      3.48100
  320     5     2      0.08531      13.74800      12.29500      4.62500
  321     5     2      0.08619      15.19200      13.94000      3.46600
  322     5     2      0.08619      14.09900      15.23500      3.86300
  323     5     2      0.10040      19.54500      15.13100     10.89600
  324     5     2      0.10040      18.28100      14.37700     11.83800
  325     5     2      0.10017      19.39500      12.22100     11.79300
  326     5     2      0.10017      20.60000      13.40600     12.24400
  327     5     2      0.08666      21.53400      11.90100     10.50000
  328     5     2      0.08666      21.36200      13.51300      9.84300
  329     5     2      0.09782      20.46900      11.98700      8.18500
  330     5     2      0.09782      19.52800      11.12300      9.37700
  331     6     3     -0.05928      42.91100      26.26400      4.34800
  332     6     4     -0.06582      41.51400      25.69000      4.62600
  333     6     4     -0.07468      41.15700      24.39100      4.19200
  334     6     3     -0.13454      42.14000      23.52800      3.42400
  335     6     3     -0.11976      43.61100      23.91300      3.64900
  336     6     3     -0.09081      43.82300      25.42300      3.40500
  337     6     3     -0.15203      42.97600      27.79300      4.08200
  338     6     3     -0.16388      41.97200      28.35200      3.04400
  339     6     3     -0.16610      42.08300      29.87300      2.82000
  340     6     3     -0.15788      43.02300      30.30500      1.67500
  341     6     3     -0.17145      44.53200      30.10100      1.91500
  342     6     3     -0.17560      45.10200      30.80900      3.16100
  343     6     3     -0.18635      44.92700      32.33700      3.18000
  344     6     3     -0.23932      45.64800      33.05700      2.03100
  345     6     3     -0.18425      43.72500      25.74800      1.89700
  346     6     3     -0.19885      44.69700      24.90000      1.06100
  347     6     3     -0.17954      44.50300      23.39700      1.30400
  348     6     3     -0.16637      44.58000      23.06100      2.80200
  349     6     4     -0.13103      39.87700      23.87500      4.47900
  350     6     4     -0.07776      38.94700      24.63000      5.22100
  351     6     4     -0.08308      39.30800      25.91600      5.68500
  352     6     4     -0.12844      40.58800      26.42700      5.39800
  353     6     3     -0.14007      38.34500      26.74200      6.52500
  354     6     3     -0.17895      36.88100      26.28400      6.44400
  355     6     3     -0.17142      36.79400      24.76400      6.61500
  356     6     3     -0.13110      37.56400      24.05800      5.48900
  357     6     1      0.13201      39.60500      22.89100      4.13000
  358     6     1      0.13233      40.85700      27.40100      5.77500
  359     6     2      0.10409      41.99100      22.48600      3.70900
  360     6     2      0.10409      41.87100      23.59800      2.37100
  361     6     2      0.09954      43.83400      23.71200      4.69900
  362     6     2      0.09959      44.85100      25.65300      3.69200
  363     6     2      0.09015      43.38500      26.14200      5.32400
  364     6     2      0.09060      43.99600      28.05400      3.80900
  365     6     2      0.09060      42.80700      28.31400      5.02400
  366     6     2      0.09520      42.03400      27.83200      2.09200
  367     6     2      0.09520      40.96200      28.14700      3.39700
  368     6     2      0.07939      42.32800      30.38900      3.74900
  369     6     2      0.07939      41.08700      30.23400      2.55700
  370     6     2      0.07912      42.73800      29.78000      0.76300
  371     6     2      0.07912      42.84600      31.35900      1.45900
  372     6     2      0.08362      44.75000      29.03600      1.97200
  373     6     2      0.08362      45.07300      30.44200      1.03200
  374     6     2      0.08772      46.16500      30.57100      3.24300
  375     6     2      0.08772      44.64700      30.39000      4.05800
  376     6     2      0.08733      43.86800      32.59700      3.17300
  377     6     2      0.08733      45.31500      32.71900      4.12700
  378     6     2      0.08305      45.22500      32.78900      1.06300
  379     6     2      0.08305      46.71000      32.81200      2.01400
  380     6     2      0.08305      45.55900      34.13800      2.13500
  381     6     2      0.10252      42.70200      25.60400      1.54700
  382     6     2      0.10252      43.96500      26.79500      1.72100
  383     6     2      0.09669      45.72300      25.17600      1.30700
  384     6     2      0.09669      44.57000      25.12400      0.00000
  385     6     2      0.08531      45.26000      22.83100      0.75900
  386     6     2      0.08531      43.54200      23.07800      0.89600
  387     6     2      0.08619      44.38600      22.00000      2.96000
  388     6     2      0.08619      45.60000      23.23200      3.15200
  389     6     2      0.10040      38.68700      26.68500      7.55900
  390     6     2      0.10040      38.41800      27.78900      6.23100
  391     6     2      0.10017      36.46200      26.56600      5.47700
  392     6     2      0.10017      36.28500      26.79300      7.20200
  393     6     2      0.08666      35.75300      24.43600      6.62100
  394     6     2      0.08666      37.21500      24.48100      7.58100
  395     6     2      0.09782      37.65200      22.99500      5.71700
  396     6     2      0.09782      36.99800      24.13100      4.56000