LAMMPS data file of the system for full atom style

    4960 atoms
    4898 bonds
    9672 angles
   13950 dihedrals

    2 atom types
    2 bond types
    3 angle types
    2 dihedral types

    0.000000    50.000000 xlo xhi
    0.000000    50.000000 ylo yhi
    0.000000    50.000000 zlo zhi

 Masses 

    1       1.0080
    2      12.0110

 Pair Coeffs 

    1       0.0300       2.5000
    2       0.0660       3.5000

 Bond Coeffs 

    1     268.0000        1.5290
    2     340.0000        1.0900

 Angle Coeffs 

    1      33.0000      107.8000
    2      37.5000      110.7000
    3      58.3500      112.7000

 Dihedral Coeffs 

    1       0.0000        0.0000       0.3000        0.0000
    2       0.8500       -0.2000       0.2000        0.0000

 Atoms 

    1     1     2     -0.17876      20.77800      20.27900     45.33100
    2     1     2     -0.17312      20.01400      19.75600     44.10300
    3     1     2     -0.18542      20.97200      21.80400     45.33900
    4     1     2     -0.18961      21.84000      22.27500     46.51500
    5     1     2     -0.18429      22.03400      23.80000     46.52400
    6     1     2     -0.18204      22.80700      24.32100     47.74600
    7     1     2     -0.17691      24.29200      23.91600     47.75900
    8     1     2     -0.17433      25.06700      24.43700     48.98400
    9     1     2     -0.15436      25.18700      25.96900     49.08600
   10     1     2     -0.16767      25.86600      26.67900     47.89700
   11     1     2     -0.16474      27.36100      26.35600     47.71100
   12     1     2     -0.17485      27.63700      25.20600     46.72400
   13     1     2     -0.18178      29.13300      24.98800     46.43000
   14     1     2     -0.18105      29.98100      24.56400     47.64300
   15     1     2     -0.24513      29.55000      23.22500     48.25900
   16     1     2     -0.17687      18.52800      20.15800     44.08300
   17     1     2     -0.17926      17.76100      19.64900     42.84700
   18     1     2     -0.18482      17.69700      18.11900     42.68600
   19     1     2     -0.18084      16.97800      17.40000     43.84200
   20     1     2     -0.18007      16.91200      15.86900     43.67800
   21     1     2     -0.17663      16.12500      15.36900     42.45200
   22     1     2     -0.18207      14.64700      15.78900     42.44700
   23     1     2     -0.19933      13.86600      15.16300     41.28200
   24     1     2     -0.18637      12.39200      15.59100     41.26900
   25     1     2     -0.19553      11.61300      14.96200     40.10600
   26     1     2     -0.24648      10.14000      15.38800     40.08900
   27     1     1      0.08569      10.04100      16.46900     39.98600
   28     1     1      0.08569       9.61100      14.92800     39.25500
   29     1     1      0.08569       9.63100      15.09100     41.00700
   30     1     1      0.09420      12.07800      15.24000     39.15800
   31     1     1      0.09420      11.67200      13.87400     40.16800
   32     1     1      0.09679      12.32900      16.67900     41.20600
   33     1     1      0.09679      11.92400      15.31200     42.21500
   34     1     1      0.08729      14.33500      15.44500     40.33800
   35     1     1      0.08729      13.92900      14.07600     41.34400
   36     1     1      0.09333      14.57300      16.87500     42.38400
   37     1     1      0.09333      14.18300      15.50100     43.39200
   38     1     1      0.09232      16.60900      15.69900     41.53200
   39     1     1      0.09232      16.18300      14.27900     42.43400
   40     1     1      0.08780      16.47100      15.43900     44.57900
   41     1     1      0.08780      17.92700      15.47300     43.63300
   42     1     1      0.09352      15.97600      17.81000     43.97200
   43     1     1      0.09352      17.50200      17.60800     44.77400
   44     1     1      0.08955      17.17300      17.90800     41.75300
   45     1     1      0.08955      18.69900      17.70900     42.55600
   46     1     1      0.08853      18.21200      20.07900     41.95100
   47     1     1      0.08853      16.74400      20.04300     42.87700
   48     1     1      0.09059      18.03700      19.81800     44.99700
   49     1     1      0.09059      18.44700      21.24500     44.09900
   50     1     1      0.09140      20.09000      18.66900     44.10100
   51     1     1      0.09140      20.50500      20.09300     43.18900
   52     1     1      0.08785      20.27200      19.96100     46.24400
   53     1     1      0.08785      21.75800      19.80000     45.35100
   54     1     1      0.09225      21.43200      22.11800     44.40100
   55     1     1      0.09225      20.00300      22.30100     45.38900
   56     1     1      0.09457      22.81000      21.77700     46.46400
   57     1     1      0.09457      21.38100      21.96000     47.45400
   58     1     1      0.09189      21.05300      24.27900     46.50900
   59     1     1      0.09189      22.53400      24.11900     45.60800
   60     1     1      0.08737      22.73400      25.40900     47.74900
   61     1     1      0.08737      22.31900      23.98600     48.66400
   62     1     1      0.09295      24.77200      24.24800     46.83800
   63     1     1      0.09295      24.37000      22.82900     47.75400
   64     1     1      0.08391      26.06500      24.00000     48.99400
   65     1     1      0.08391      24.58800      24.06200     49.88900
   66     1     1      0.08425      25.73100      26.21500     50.00000
   67     1     1      0.08425      24.19400      26.39600     49.22800
   68     1     1      0.07559      25.78300      27.75100     48.08100
   69     1     1      0.07559      25.31200      26.51200     46.97300
   70     1     1      0.08078      27.85700      27.25000     47.33100
   71     1     1      0.08078      27.81800      26.15400     48.68000
   72     1     1      0.09193      27.19600      24.27600     47.07800
   73     1     1      0.09193      27.13300      25.42400     45.78200
   74     1     1      0.09390      29.55000      25.90400     46.00600
   75     1     1      0.09390      29.23200      24.23500     45.64700
   76     1     1      0.08718      29.96900      25.34200     48.40500
   77     1     1      0.08718      31.02200      24.48200     47.32600
   78     1     1      0.08193      28.55500      23.28700     48.69800
   79     1     1      0.08193      29.54300      22.42900     47.51600
   80     1     1      0.08193      30.23500      22.92800     49.05500
   81     2     2     -0.17876      23.64400      15.33400     33.98700
   82     2     2     -0.17312      22.85800      15.73600     35.24700
   83     2     2     -0.18542      23.65900      13.82000     33.72100
   84     2     2     -0.18961      24.55000      13.44600     32.52700
   85     2     2     -0.18429      24.56400      11.93200     32.26100
   86     2     2     -0.18204      25.35800      11.52900     31.00800
   87     2     2     -0.17691      26.87700      11.73800     31.14300
   88     2     2     -0.17433      27.67300      11.33700     29.88700
   89     2     2     -0.15436      27.62100       9.84000     29.52300
   90     2     2     -0.16767      28.12500       8.86100     30.60300
   91     2     2     -0.16474      29.63000       8.95600     30.91900
   92     2     2     -0.17485      29.96600       9.87900     32.10500
   93     2     2     -0.18178      31.45100       9.85200     32.51000
   94     2     2     -0.18105      32.42900      10.36300     31.43500
   95     2     2     -0.24513      32.20300      11.83000     31.04200
   96     2     2     -0.17687      21.33800      15.52900     35.11900
   97     2     2     -0.17926      20.54800      15.91600     36.38500
   98     2     2     -0.18482      20.65100      17.39400     36.80800
   99     2     2     -0.18084      20.10600      18.38200     35.76100
  100     2     2     -0.18007      20.20700      19.85900     36.18700
  101     2     2     -0.17663      19.39700      20.24200     37.44000
  102     2     2     -0.18207      17.88400      20.01900     37.29400
  103     2     2     -0.19933      17.09900      20.53400     38.51000
  104     2     2     -0.18637      15.58800      20.30200     38.37200
  105     2     2     -0.19553      14.80500      20.82000     39.58600
  106     2     2     -0.24648      13.29500      20.58800     39.45200
  107     2     1      0.08569      13.06300      19.52700     39.35800
  108     2     1      0.08569      12.76400      20.96600     40.32500
  109     2     1      0.08569      12.89200      21.09700     38.57500
  110     2     1      0.09420      15.16500      20.33100     40.49200
  111     2     1      0.09420      14.99500      21.88600     39.71800
  112     2     1      0.09679      15.39400      19.23600     38.24000
  113     2     1      0.09679      15.22500      20.79200     37.46700
  114     2     1      0.08729      17.46200      20.04100     39.41200
  115     2     1      0.08729      17.29200      21.60000     38.64200
  116     2     1      0.09333      17.68000      18.95600     37.16200
  117     2     1      0.09333      17.52600      20.51700     36.39200
  118     2     1      0.09232      19.77100      19.70400     38.31100
  119     2     1      0.09232      19.58000      21.29700     37.65100
  120     2     1      0.08780      19.88500      20.48700     35.35300
  121     2     1      0.08780      21.25500      20.11000     36.35200
  122     2     1      0.09352      19.07600      18.13000     35.50900
  123     2     1      0.09352      20.66900      18.26700     34.83400
  124     2     1      0.08955      20.08900      17.51000     37.73500
  125     2     1      0.08955      21.68200      17.64500     37.05900
  126     2     1      0.08853      20.88000      15.28900     37.21300
  127     2     1      0.08853      19.49700      15.66600     36.23400
  128     2     1      0.09059      20.95800      16.07600     34.25600
  129     2     1      0.09059      21.13300      14.47900     34.91000
  130     2     1      0.09140      23.06000      16.78900     35.44400
  131     2     1      0.09140      23.23900      15.19100     36.11200
  132     2     1      0.08785      23.24600      15.86300     33.11900
  133     2     1      0.08785      24.67200      15.68100     34.10100
  134     2     1      0.09225      24.01000      13.29700     34.61300
  135     2     1      0.09225      22.64500      13.46500     33.53500
  136     2     1      0.09457      25.56400      13.80100     32.71400
  137     2     1      0.09457      24.20000      13.97000     31.63600
  138     2     1      0.09189      23.53600      11.58600     32.14200
  139     2     1      0.09189      24.95700      11.40300     33.13200
  140     2     1      0.08737      25.15900      10.47600     30.81000
  141     2     1      0.08737      24.98100      12.07300     30.13900
  142     2     1      0.09295      27.24800      11.19900     32.01400
  143     2     1      0.09295      27.08000      12.79100     31.34200
  144     2     1      0.08391      28.71400      11.63900     30.00500
  145     2     1      0.08391      27.30800      11.91600     29.03800
  146     2     1      0.08425      28.19800       9.68400     28.61000
  147     2     1      0.08425      26.59800       9.57300     29.25800
  148     2     1      0.07559      27.93100       7.85500     30.23000
  149     2     1      0.07559      27.52800       8.93900     31.51300
  150     2     1      0.08078      29.99000       7.95400     31.16200
  151     2     1      0.08078      30.17600       9.25700     30.02500
  152     2     1      0.09193      29.66200      10.90300     31.89800
  153     2     1      0.09193      29.37300       9.57200     32.96800
  154     2     1      0.09390      31.72700       8.83300     32.78700
  155     2     1      0.09390      31.58000      10.44500     33.41700
  156     2     1      0.08718      32.38200       9.73100     30.54800
  157     2     1      0.08718      33.44700      10.25700     31.81400
  158     2     1      0.08193      31.24100      11.97000     30.54900
  159     2     1      0.08193      32.23400      12.48500     31.91200
  160     2     1      0.08193      32.97300      12.16600     30.34700
  161     3     2     -0.17876      38.50200      34.42700     27.89800
  162     3     2     -0.17312      39.40500      35.63700     28.19100
  163     3     2     -0.18542      37.25500      34.77000     27.06700
  164     3     2     -0.18961      36.31900      33.56500     26.89600
  165     3     2     -0.18429      35.07200      33.90700     26.06500
  166     3     2     -0.18204      34.16400      32.70000     25.78000
  167     3     2     -0.17691      33.44600      32.15700     27.02900
  168     3     2     -0.17433      32.53700      30.94600     26.74600
  169     3     2     -0.15436      31.33500      31.22500     25.82400
  170     3     2     -0.16767      30.35300      32.31500     26.29800
  171     3     2     -0.16474      29.56900      31.97300     27.58000
  172     3     2     -0.17485      30.22100      32.49700     28.87400
  173     3     2     -0.18178      29.35900      32.28300     30.13200
  174     3     2     -0.18105      29.09100      30.81100     30.49600
  175     3     2     -0.24513      30.36400      30.01000     30.80700
  176     3     2     -0.17687      40.12600      36.18600     26.94600
  177     3     2     -0.17926      41.02100      37.40800     27.23200
  178     3     2     -0.18482      42.18300      37.16700     28.21400
  179     3     2     -0.18084      43.19900      36.11700     27.73000
  180     3     2     -0.18007      44.36300      35.87900     28.71100
  181     3     2     -0.17663      45.26600      37.09900     28.97500
  182     3     2     -0.18207      45.96700      37.63800     27.71800
  183     3     2     -0.19933      46.95700      38.76700     28.04100
  184     3     2     -0.18637      47.65000      39.31300     26.78500
  185     3     2     -0.19553      48.64100      40.43900     27.11100
  186     3     2     -0.24648      49.33500      40.98900     25.85800
  187     3     1      0.08569      48.61300      41.40000     25.15200
  188     3     1      0.08569      50.03200      41.78500     26.11700
  189     3     1      0.08569      49.89900      40.21000     25.34400
  190     3     1      0.09420      48.12100      41.25300     27.61900
  191     3     1      0.09420      49.39600      40.07600     27.80900
  192     3     1      0.09679      46.89800      39.68000     26.08400
  193     3     1      0.09679      48.17400      38.50200     26.27600
  194     3     1      0.08729      46.43100      39.57700     28.54800
  195     3     1      0.08729      47.70900      38.40200     28.74200
  196     3     1      0.09333      45.22300      38.00600     27.01100
  197     3     1      0.09333      46.49400      36.82300     27.21800
  198     3     1      0.09232      44.69400      37.89600     29.45200
  199     3     1      0.09232      46.02300      36.80900     29.70500
  200     3     1      0.08780      44.97900      35.06100     28.33300
  201     3     1      0.08780      43.96100      35.52500     29.66100
  202     3     1      0.09352      43.58300      36.39200     26.74800
  203     3     1      0.09352      42.68900      35.16400     27.58800
  204     3     1      0.08955      42.69500      38.11900     28.35800
  205     3     1      0.08955      41.79900      36.89100     29.19600
  206     3     1      0.08853      40.39900      38.21900     27.61600
  207     3     1      0.08853      41.42700      37.77500     26.28900
  208     3     1      0.09059      40.70900      35.39500     26.47300
  209     3     1      0.09059      39.38700      36.48400     26.20300
  210     3     1      0.09140      40.14900      35.32800     28.92600
  211     3     1      0.09140      38.82400      36.42800     28.66700
  212     3     1      0.08785      39.08000      33.64600     27.40100
  213     3     1      0.08785      38.18400      34.00100     28.85000
  214     3     1      0.09225      36.71100      35.58600     27.54600
  215     3     1      0.09225      37.55300      35.13300     26.08300
  216     3     1      0.09457      36.02100      33.20200     27.88100
  217     3     1      0.09457      36.86200      32.74800     26.41900
  218     3     1      0.09189      35.39100      34.32900     25.11000
  219     3     1      0.09189      34.49700      34.69300     26.55900
  220     3     1      0.08737      33.41800      33.00800     25.04600
  221     3     1      0.08737      34.74200      31.90500     25.30500
  222     3     1      0.09295      32.87600      32.95500     27.50400
  223     3     1      0.09295      34.18800      31.84900     27.76700
  224     3     1      0.08391      32.17600      30.53500     27.68800
  225     3     1      0.08391      33.13900      30.15000     26.30500
  226     3     1      0.08425      30.78400      30.29400     25.67800
  227     3     1      0.08425      31.70100      31.49200     24.83200
  228     3     1      0.07559      29.62600      32.45500     25.49800
  229     3     1      0.07559      30.85300      33.28000     26.39100
  230     3     1      0.08078      28.57600      32.42000     27.50100
  231     3     1      0.08078      29.40500      30.89700     27.63600
  232     3     1      0.09193      31.20200      32.05000     29.02300
  233     3     1      0.09193      30.40500      33.56600     28.76600
  234     3     1      0.09390      28.40500      32.79800     30.00300
  235     3     1      0.09390      29.84200      32.77500     30.97800
  236     3     1      0.08718      28.53000      30.31900     29.70100
  237     3     1      0.08718      28.44000      30.78300     31.37200
  238     3     1      0.08193      30.99800      29.90700     29.92700
  239     3     1      0.08193      30.95100      30.48400     31.59200
  240     3     1      0.08193      30.11400      29.00300     31.14300
  241     4     2     -0.17876      36.52400      18.93100     18.43600
  242     4     2     -0.17312      36.15600      18.62100     19.89600
  243     4     2     -0.18542      35.35300      19.47500     17.60200
  244     4     2     -0.18961      35.72600      19.65900     16.12300
  245     4     2     -0.18429      34.55400      20.20300     15.28900
  246     4     2     -0.18204      34.92000      20.50400     13.82700
  247     4     2     -0.17691      35.21400      19.24600     12.99000
  248     4     2     -0.17433      35.58200      19.54600     11.52500
  249     4     2     -0.15436      34.46600      20.19500     10.68400
  250     4     2     -0.16767      33.14900      19.40100     10.57400
  251     4     2     -0.16474      33.25300      18.06900      9.80600
  252     4     2     -0.17485      33.50300      16.84300     10.70500
  253     4     2     -0.18178      33.45600      15.50200      9.95000
  254     4     2     -0.18105      34.54300      15.32100      8.87300
  255     4     2     -0.24513      35.97400      15.35800      9.42800
  256     4     2     -0.17687      35.86000      19.87500     20.73900
  257     4     2     -0.17926      35.47600      19.56700     22.20000
  258     4     2     -0.18482      36.55200      18.84800     23.03500
  259     4     2     -0.18084      37.85500      19.65100     23.19600
  260     4     2     -0.18007      38.93000      18.93200     24.03400
  261     4     2     -0.17663      38.54600      18.64800     25.49800
  262     4     2     -0.18207      38.24500      19.91200     26.31900
  263     4     2     -0.19933      37.99700      19.60000     27.80200
  264     4     2     -0.18637      37.68500      20.86000     28.62100
  265     4     2     -0.19553      37.44000      20.54500     30.10300
  266     4     2     -0.24648      37.12700      21.80200     30.92400
  267     4     1      0.08569      36.23100      22.30400     30.55700
  268     4     1      0.08569      36.95800      21.55100     31.97100
  269     4     1      0.08569      37.95000      22.51700     30.88500
  270     4     1      0.09420      36.61400      19.83900     30.19800
  271     4     1      0.09420      38.31600      20.04900     30.52400
  272     4     1      0.09679      36.80900      21.35800     28.20300
  273     4     1      0.09679      38.51200      21.56700     28.53000
  274     4     1      0.08729      37.16900      18.89400     27.89000
  275     4     1      0.08729      38.87200      19.10100     28.22000
  276     4     1      0.09333      37.37100      20.41800     25.90900
  277     4     1      0.09333      39.07800      20.61200     26.22900
  278     4     1      0.09232      37.69600      17.96600     25.54100
  279     4     1      0.09232      39.37200      18.11100     25.96700
  280     4     1      0.08780      39.84400      19.52900     24.01900
  281     4     1      0.08780      39.18900      17.99100     23.54700
  282     4     1      0.09352      37.64000      20.63300     23.61900
  283     4     1      0.09352      38.28100      19.84400     22.21100
  284     4     1      0.08955      36.12800      18.65300     24.02000
  285     4     1      0.08955      36.76700      17.86600     22.61100
  286     4     1      0.08853      34.56500      18.96600     22.20600
  287     4     1      0.08853      35.21000      20.50100     22.69700
  288     4     1      0.09059      36.71300      20.55400     20.70900
  289     4     1      0.09059      35.03500      20.42600     20.28900
  290     4     1      0.09140      36.99000      18.07900     20.34300
  291     4     1      0.09140      35.30500      17.93900     19.92700
  292     4     1      0.08785      37.36100      19.63200     18.40700
  293     4     1      0.08785      36.88900      18.01300     17.97300
  294     4     1      0.09225      34.50400      18.79200     17.67800
  295     4     1      0.09225      35.01900      20.43000     18.00800
  296     4     1      0.09457      36.06000      18.70300     15.71800
  297     4     1      0.09457      36.57500      20.34000     16.04600
  298     4     1      0.09189      34.19300      21.12500     15.74900
  299     4     1      0.09189      33.71500      19.50500     15.32300
  300     4     1      0.08737      34.08600      21.04400     13.37800
  301     4     1      0.08737      35.77300      21.18500     13.79000
  302     4     1      0.09295      34.36300      18.56600     13.03500
  303     4     1      0.09295      36.04600      18.70100     13.43700
  304     4     1      0.08391      35.90700      18.62800     11.03700
  305     4     1      0.08391      36.45600      20.19800     11.50800
  306     4     1      0.08425      34.85000      20.38100      9.68000
  307     4     1      0.08425      34.24500      21.18400     11.08700
  308     4     1      0.07559      32.44300      20.03500     10.03600
  309     4     1      0.07559      32.69700      19.25200     11.55500
  310     4     1      0.08078      32.31300      17.90800      9.27500
  311     4     1      0.08078      34.01900      18.14700      9.03400
  312     4     1      0.09193      34.45200      16.93400     11.22900
  313     4     1      0.09193      32.74200      16.82100     11.48600
  314     4     1      0.09390      32.47400      15.38600      9.48800
  315     4     1      0.09390      33.53400      14.68800     10.67300
  316     4     1      0.08718      34.43000      16.07200      8.09100
  317     4     1      0.08718      34.38500      14.36100      8.38000
  318     4     1      0.08193      36.22400      16.33900      9.83100
  319     4     1      0.08193      36.11300      14.62300     10.22100
  320     4     1      0.08193      36.69800      15.13800      8.64300
  321     5     2     -0.17876      13.35200      11.32400     37.15000
  322     5     2     -0.17312      14.31100      12.49100     36.86500
  323     5     2     -0.18542      11.94900      11.76700     37.59500
  324     5     2     -0.18961      11.05800      10.57900     37.98500
  325     5     2     -0.18429       9.65500      11.02200     38.43000
  326     5     2     -0.18204       8.69800       9.85500     38.72400
  327     5     2     -0.17691       9.07600       9.04700     39.97900
  328     5     2     -0.17433       8.11900       7.87700     40.27500
  329     5     2     -0.15436       6.67100       8.27800     40.61700
  330     5     2     -0.16767       6.49400       9.20900     41.83300
  331     5     2     -0.16474       6.87400       8.58900     43.19100
  332     5     2     -0.17485       8.32200       8.87800     43.63000
  333     5     2     -0.18178       8.64900       8.38500     45.05200
  334     5     2     -0.18105       8.56600       6.85900     45.24700
  335     5     2     -0.24513       9.54900       6.07000     44.37100
  336     5     2     -0.17687      13.94000      13.30500     35.61200
  337     5     2     -0.17926      14.89100      14.48500     35.33000
  338     5     2     -0.18482      16.35900      14.10800     35.06300
  339     5     2     -0.18084      16.55800      13.21800     33.82200
  340     5     2     -0.18007      18.02900      12.84400     33.55300
  341     5     2     -0.17663      18.96800      14.02800     33.25200
  342     5     2     -0.18207      18.57300      14.83200     32.00300
  343     5     2     -0.19933      19.60300      15.91900     31.65900
  344     5     2     -0.18637      19.20500      16.73000     30.41900
  345     5     2     -0.19553      20.23700      17.81300     30.07600
  346     5     2     -0.24648      19.84200      18.62700     28.83800
  347     5     1      0.08569      18.88900      19.13600     28.98400
  348     5     1      0.08569      20.59100      19.38700     28.61600
  349     5     1      0.08569      19.74800      17.99000     27.95700
  350     5     1      0.09420      20.35900      18.48800     30.92500
  351     5     1      0.09420      21.21200      17.35400     29.90800
  352     5     1      0.09679      18.23000      17.19300     30.58400
  353     5     1      0.09679      19.08400      16.05800     29.56700
  354     5     1      0.08729      19.72000      16.59000     32.51200
  355     5     1      0.08729      20.57700      15.45700     31.49500
  356     5     1      0.09333      17.59900      15.29800     32.15800
  357     5     1      0.09333      18.46100      14.15500     31.15400
  358     5     1      0.09232      19.03000      14.69000     34.11600
  359     5     1      0.09232      19.97600      13.63400     33.11500
  360     5     1      0.08780      18.06500      12.14400     32.71700
  361     5     1      0.08780      18.41800      12.29400     34.41100
  362     5     1      0.09352      16.12300      13.69700     32.94500
  363     5     1      0.09352      16.00200      12.29000     33.95500
  364     5     1      0.08955      16.91800      15.03500     34.93100
  365     5     1      0.08955      16.79400      13.62800     35.94100
  366     5     1      0.08853      14.85300      15.17700     36.17400
  367     5     1      0.08853      14.51000      15.04700     34.47700
  368     5     1      0.09059      13.88800      12.64800     34.74300
  369     5     1      0.09059      12.93500      13.71000     35.72900
  370     5     1      0.09140      15.31200      12.07700     36.73900
  371     5     1      0.09140      14.36600      13.14700     37.73500
  372     5     1      0.08785      13.28000      10.68100     36.27100
  373     5     1      0.08785      13.79000      10.70600     37.93500
  374     5     1      0.09225      12.03400      12.44900     38.44300
  375     5     1      0.09225      11.46500      12.32800     36.79500
  376     5     1      0.09457      11.54200      10.01800     38.78600
  377     5     1      0.09457      10.97300       9.89600     37.13800
  378     5     1      0.09189       9.21400      11.63600     37.64200
  379     5     1      0.09189       9.72700      11.67000     39.30600
  380     5     1      0.08737       7.69700      10.26700     38.85300
  381     5     1      0.08737       8.64100       9.19500     37.85700
  382     5     1      0.09295       9.13800       9.71200     40.84100
  383     5     1      0.09295      10.07700       8.63500     39.85500
  384     5     1      0.08391       8.52300       7.27400     41.08800
  385     5     1      0.08391       8.10300       7.20900     39.41200
  386     5     1      0.08425       6.08800       7.37000     40.78100
  387     5     1      0.08425       6.21700       8.74900     39.74500
  388     5     1      0.07559       5.43600       9.47100     41.87700
  389     5     1      0.07559       7.00800      10.15900     41.67800
  390     5     1      0.08078       6.20600       8.99900     43.95100
  391     5     1      0.08078       6.68000       7.51700     43.17400
  392     5     1      0.09193       9.03400       8.45400     42.92400
  393     5     1      0.09193       8.49000       9.95500     43.59700
  394     5     1      0.09390       7.97800       8.87200     45.76100
  395     5     1      0.09390       9.65100       8.72300     45.32100
  396     5     1      0.08718       7.54900       6.50900     45.06900
  397     5     1      0.08718       8.77300       6.63200     46.29500
  398     5     1      0.08193       9.31200       6.16900     43.31200
  399     5     1      0.08193      10.57400       6.40700     44.52100
  400     5     1      0.08193       9.51200       5.00700     44.61200
  401     6     2     -0.17876      12.96500       5.21600     18.05600
  402     6     2     -0.17312      14.37700       5.49600     17.51400
  403     6     2     -0.18542      12.28100       6.44700     18.67300
  404     6     2     -0.18961      10.92600       6.10300     19.30900
  405     6     2     -0.18429      10.24200       7.33400     19.92600