LAMMPS data file of the system for full atom style

    4988 atoms
    4930 bonds
    9744 angles
   14094 dihedrals

    2 atom types
    2 bond types
    3 angle types
    2 dihedral types

    0.000000    50.000000 xlo xhi
    0.000000    50.000000 ylo yhi
    0.000000    50.000000 zlo zhi

 Masses 

    1       1.0080
    2      12.0110

 Pair Coeffs 

    1       0.0300       2.5000
    2       0.0660       3.5000

 Bond Coeffs 

    1     268.0000        1.5290
    2     340.0000        1.0900

 Angle Coeffs 

    1      33.0000      107.8000
    2      37.5000      110.7000
    3      58.3500      112.7000

 Dihedral Coeffs 

    1       0.0000        0.0000       0.3000        0.0000
    2       0.8500       -0.2000       0.2000        0.0000

 Atoms 

    1     1     2     -0.12185      34.58700      37.82900      3.55300
    2     1     2     -0.19123      34.68600      36.28300      3.62400
    3     1     2     -0.16979      35.88800      35.69200      4.39400
    4     1     2     -0.10995      36.03100      36.15000      5.86100
    5     1     2     -0.14697      37.39800      35.81500      6.52100
    6     1     2     -0.04794      37.96700      34.36200      6.54900
    7     1     2     -0.24846      39.09500      34.33000      7.59800
    8     1     2     -0.22810      36.91900      33.31200      6.95800
    9     1     2     -0.23419      38.59500      33.96500      5.19600
   10     1     2     -0.23906      34.81100      35.77400      6.72500
   11     1     2     -0.18357      33.35000      38.27300      2.73700
   12     1     2     -0.18541      31.99800      37.81100      3.32000
   13     1     2     -0.10521      30.76600      38.44900      2.63700
   14     1     2     -0.15407      30.53900      39.90200      3.14500
   15     1     2     -0.06488      29.49300      40.80800      2.42800
   16     1     2     -0.22732      29.49200      40.59900      0.90200
   17     1     2     -0.24295      29.86800      42.27800      2.70400
   18     1     2     -0.23435      28.07300      40.58900      2.98900
   19     1     2     -0.23872      29.53800      37.54300      2.84000
   20     1     2     -0.17393      35.88600      38.45700      2.99100
   21     1     2     -0.18032      35.92700      39.99700      3.03800
   22     1     2     -0.12271      37.33700      40.59200      2.83200
   23     1     2     -0.15724      37.32400      42.13000      3.04300
   24     1     2     -0.06488      38.47400      42.72500      3.89900
   25     1     2     -0.24152      38.33800      44.25900      3.88600
   26     1     2     -0.22599      39.85600      42.35800      3.32500
   27     1     2     -0.23652      38.37300      42.24700      5.36100
   28     1     2     -0.25015      37.90500      40.22400      1.44700
   29     1     1      0.10215      34.45000      38.20300      4.56900
   30     1     1      0.08878      34.70100      35.88300      2.61000
   31     1     1      0.08878      33.78200      35.87800      4.07600
   32     1     1      0.09814      36.80800      35.90600      3.85000
   33     1     1      0.09814      35.78600      34.60800      4.37100
   34     1     1      0.09231      36.03100      37.24100      5.84300
   35     1     1      0.08561      38.15100      36.45700      6.06000
   36     1     1      0.08561      37.34200      36.18100      7.54700
   37     1     1      0.08415      39.88000      35.05200      7.36600
   38     1     1      0.08415      38.72400      34.56500      8.59700
   39     1     1      0.08415      39.56800      33.34900      7.65700
   40     1     1      0.08171      37.37400      32.33200      7.10600
   41     1     1      0.08171      36.15200      33.18700      6.19600
   42     1     1      0.08171      36.42400      33.58500      7.89100
   43     1     1      0.08104      39.13000      33.01700      5.27200
   44     1     1      0.08104      37.85600      33.83100      4.40900
   45     1     1      0.08104      39.31100      34.71100      4.85000
   46     1     1      0.08108      33.91900      36.30600      6.39600
   47     1     1      0.08108      34.96700      36.03900      7.77100
   48     1     1      0.08108      34.57900      34.71100      6.68200
   49     1     1      0.09340      33.34300      39.35700      2.67500
   50     1     1      0.09340      33.44000      37.92300      1.70800
   51     1     1      0.08779      31.94100      36.72900      3.20900
   52     1     1      0.08779      31.96500      38.00100      4.39500
   53     1     1      0.10017      30.97700      38.47000      1.56700
   54     1     1      0.08859      31.49800      40.41400      3.07800
   55     1     1      0.08859      30.32500      39.88000      4.21500
   56     1     1      0.08221      28.83600      41.31200      0.40100
   57     1     1      0.08221      30.49100      40.72500      0.48100
   58     1     1      0.08221      29.14300      39.60400      0.62500
   59     1     1      0.08794      30.84800      42.53100      2.29700
   60     1     1      0.08794      29.89600      42.49000      3.77400
   61     1     1      0.08794      29.15100      42.96900      2.25700
   62     1     1      0.08298      27.68100      39.59700      2.77900
   63     1     1      0.08298      28.04600      40.72300      4.07200
   64     1     1      0.08298      27.36400      41.29700      2.56100
   65     1     1      0.08018      29.17300      37.58600      3.86600
   66     1     1      0.08018      28.72300      37.81900      2.17400
   67     1     1      0.08018      29.76500      36.50200      2.61200
   68     1     1      0.09488      36.73600      38.09900      3.56900
   69     1     1      0.09488      36.04800      38.10800      1.97000
   70     1     1      0.09190      35.24900      40.41700      2.29400
   71     1     1      0.09190      35.55200      40.31900      4.01100
   72     1     1      0.11349      37.98400      40.14100      3.58200
   73     1     1      0.08525      36.38200      42.42300      3.51000
   74     1     1      0.08525      37.29900      42.62100      2.06900
   75     1     1      0.08809      38.41400      44.66000      2.87400
   76     1     1      0.08809      39.11700      44.73800      4.48200
   77     1     1      0.08809      37.37800      44.58100      4.29000
   78     1     1      0.07941      40.66000      42.83700      3.88600
   79     1     1      0.07941      39.95300      42.67500      2.28600
   80     1     1      0.07941      40.04200      41.28500      3.35900
   81     1     1      0.08432      37.39700      42.47200      5.78800
   82     1     1      0.08432      38.52900      41.17200      5.46000
   83     1     1      0.08432      39.12200      42.73000      5.99000
   84     1     1      0.08370      37.24600      40.55500      0.64500
   85     1     1      0.08370      38.04200      39.14800      1.34100
   86     1     1      0.08370      38.88000      40.68300      1.27900
   87     2     2     -0.12185      23.72900      18.92300      6.77500
   88     2     2     -0.19123      23.38600      17.48500      7.24400
   89     2     2     -0.16979      22.12400      17.31500      8.11900
   90     2     2     -0.10995      20.80900      17.83700      7.50000
   91     2     2     -0.14697      19.62200      17.95900      8.49600
   92     2     2     -0.04794      19.14700      16.75200      9.36600
   93     2     2     -0.24846      17.74700      17.10000      9.90900
   94     2     2     -0.22810      19.02600      15.44300      8.56600
   95     2     2     -0.23419      20.06400      16.52900     10.58700
   96     2     2     -0.23906      20.44800      17.13000      6.18000
   97     2     2     -0.18357      25.02500      18.94000      5.92900
   98     2     2     -0.18541      24.95600      18.10300      4.63600
   99     2     2     -0.10521      26.15900      18.31000      3.68600
  100     2     2     -0.15407      26.01400      19.63700      2.88600
  101     2     2     -0.06488      27.21600      20.15600      2.04100
  102     2     2     -0.22732      28.56600      19.91200      2.74000
  103     2     2     -0.24295      27.04600      21.67800      1.85600
  104     2     2     -0.23435      27.23200      19.52700      0.63300
  105     2     2     -0.23872      26.31800      17.07700      2.77800
  106     2     2     -0.17393      23.82500      19.90300      7.97000
  107     2     2     -0.18032      24.00500      21.38200      7.57400
  108     2     2     -0.12271      23.72800      22.37600      8.72200
  109     2     2     -0.15724      23.78100      23.84000      8.21100
  110     2     2     -0.06488      22.64500      24.78500      8.68700
  111     2     2     -0.24152      22.94800      26.20200      8.16500
  112     2     2     -0.22599      22.56400      24.84500     10.22400
  113     2     2     -0.23652      21.28600      24.34200      8.11100
  114     2     2     -0.25015      24.70300      22.16100      9.89800
  115     2     1      0.10215      22.92100      19.26600      6.12800
  116     2     1      0.08878      24.23800      17.08000      7.79300
  117     2     1      0.08878      23.27000      16.83400      6.37900
  118     2     1      0.09814      22.28800      17.78600      9.08800
  119     2     1      0.09814      22.01800      16.25200      8.33000
  120     2     1      0.09231      20.99500      18.87500      7.21700
  121     2     1      0.08561      19.84200      18.78700      9.17200
  122     2     1      0.08561      18.77000      18.31900      7.91600
  123     2     1      0.08415      17.76100      18.02100     10.49400
  124     2     1      0.08415      17.02500      17.23800      9.10300
  125     2     1      0.08415      17.35600      16.31400     10.55600
  126     2     1      0.08171      18.56100      14.65500      9.16000
  127     2     1      0.08171      19.99900      15.06600      8.25700
  128     2     1      0.08171      18.41700      15.57700      7.67100
  129     2     1      0.08104      19.63700      15.79400     11.27200
  130     2     1      0.08104      21.04700      16.15100     10.31500
  131     2     1      0.08104      20.21100      17.44800     11.15300
  132     2     1      0.08108      21.18000      17.35200      5.40400
  133     2     1      0.08108      19.48000      17.46000      5.80300
  134     2     1      0.08108      20.41400      16.04600      6.28100
  135     2     1      0.09340      25.25100      19.96800      5.65900
  136     2     1      0.09340      25.86800      18.60600      6.53500
  137     2     1      0.08779      24.91200      17.05300      4.92200
  138     2     1      0.08779      24.02500      18.30400      4.10300
  139     2     1      0.10017      27.04900      18.36400      4.31500
  140     2     1      0.08859      25.77600      20.41700      3.60900
  141     2     1      0.08859      25.12500      19.58100      2.25600
  142     2     1      0.08221      29.38900      20.37400      2.19200
  143     2     1      0.08221      28.57400      20.32700      3.74900
  144     2     1      0.08221      28.80000      18.85100      2.82000
  145     2     1      0.08794      27.06800      22.20700      2.80900
  146     2     1      0.08794      26.09700      21.91800      1.37200
  147     2     1      0.08794      27.84000      22.10100      1.23900
  148     2     1      0.08298      27.42300      18.45700      0.64700
  149     2     1      0.08298      26.28200      19.67700      0.11700
  150     2     1      0.08298      28.00900      19.97000      0.01000
  151     2     1      0.08018      25.53900      17.03400      2.01800
  152     2     1      0.08018      27.28500      17.06900      2.28000
  153     2     1      0.08018      26.27400      16.14900      3.35000
  154     2     1      0.09488      22.91000      19.84100      8.55800
  155     2     1      0.09488      24.63100      19.59100      8.63400
  156     2     1      0.09190      25.01000      21.55100      7.18800
  157     2     1      0.09190      23.32100      21.60100      6.75200
  158     2     1      0.11349      22.72400      22.16800      9.08800
  159     2     1      0.08525      23.77400      23.84300      7.12000
  160     2     1      0.08525      24.74900      24.27200      8.46900
  161     2     1      0.08809      23.89700      26.57700      8.55000
  162     2     1      0.08809      22.17600      26.91400      8.46000
  163     2     1      0.08809      23.00900      26.22400      7.07600
  164     2     1      0.07941      21.81400      25.56400     10.55600
  165     2     1      0.07941      23.51700      25.14600     10.66200
  166     2     1      0.07941      22.29400      23.88200     10.65800
  167     2     1      0.08432      21.31800      24.26800      7.02400
  168     2     1      0.08432      20.96800      23.37000      8.49100
  169     2     1      0.08432      20.49600      25.05000      8.36500
  170     2     1      0.08370      25.74100      22.24900      9.57700
  171     2     1      0.08370      24.57800      21.17600     10.34900
  172     2     1      0.08370      24.54200      22.89200     10.69000
  173     3     2     -0.12185      38.17500      41.54000     46.18200
  174     3     2     -0.19123      39.16000      42.37800     45.32600
  175     3     2     -0.16979      38.96500      43.91000     45.33200
  176     3     2     -0.10995      39.00100      44.58200     46.72100
  177     3     2     -0.14697      38.48900      46.04900     46.75100
  178     3     2     -0.04794      39.07900      47.14900     45.81300
  179     3     2     -0.24846      38.64400      48.51600     46.37700
  180     3     2     -0.22810      40.61600      47.13400     45.75900
  181     3     2     -0.23419      38.51000      47.04800     44.38200
  182     3     2     -0.23906      40.34200      44.37300     47.45100
  183     3     2     -0.18357      38.47900      40.02700     46.06300
  184     3     2     -0.18541      39.88300      39.61500     46.55100
  185     3     2     -0.10521      40.09500      38.08600     46.64700
  186     3     2     -0.15407      39.43200      37.51400     47.93400
  187     3     2     -0.06488      39.32600      35.97000     48.11700
  188     3     2     -0.22732      39.01000      35.24800     46.79400
  189     3     2     -0.24295      38.17300      35.68500     49.10000
  190     3     2     -0.23435      40.61000      35.38400     48.74200
  191     3     2     -0.23872      41.59700      37.76600     46.55200
  192     3     2     -0.17393      36.70200      41.84700     45.81900
  193     3     2     -0.18032      35.66000      41.17300     46.73400
  194     3     2     -0.12271      34.24000      41.76500     46.60800
  195     3     2     -0.15724      33.28700      41.14300     47.66200
  196     3     2     -0.06488      32.36100      42.12400     48.43000
  197     3     2     -0.24152      31.42600      41.29700     49.33300
  198     3     2     -0.22599      31.49100      42.95400     47.46700
  199     3     2     -0.23652      33.18600      43.06600     49.32800
  200     3     2     -0.25015      33.68300      41.59100     45.18100
  201     3     1      0.10215      38.32300      41.81300     47.22800
  202     3     1      0.08878      39.11300      42.03200     44.29300
  203     3     1      0.08878      40.18300      42.18100     45.64600
  204     3     1      0.09814      38.03100      44.15900     44.82600
  205     3     1      0.09814      39.75100      44.33900     44.71100
  206     3     1      0.09231      38.26700      44.05700     47.33500
  207     3     1      0.08561      37.40900      46.02400     46.59400
  208     3     1      0.08561      38.59100      46.38900     47.78300
  209     3     1      0.08415      37.55700      48.59800     46.43900
  210     3     1      0.08415      39.04000      48.68300     47.38000
  211     3     1      0.08415      38.99400      49.34100     45.75500
  212     3     1      0.08171      41.00400      47.99400     45.21200
  213     3     1      0.08171      40.99500      46.24700     45.25200
  214     3     1      0.08171      41.05100      47.16100     46.75900
  215     3     1      0.08104      38.80000      47.91000     43.78000
  216     3     1      0.08104      38.86800      46.17200     43.84500
  217     3     1      0.08104      37.42100      47.00900     44.38300
  218     3     1      0.08108      40.49700      43.32200     47.69100
  219     3     1      0.08108      40.37300      44.91900     48.39400
  220     3     1      0.08108      41.19700      44.69000     46.85500
  221     3     1      0.09340      37.74200      39.47600     46.64100
  222     3     1      0.09340      38.34300      39.70200     45.03100
  223     3     1      0.08779      40.61100      40.02700     45.85300
  224     3     1      0.08779      40.10100      40.08000     47.51400
  225     3     1      0.10017      39.61600      37.64800     45.77000
  226     3     1      0.08859      38.41700      37.90600     47.96700
  227     3     1      0.08859      39.91300      37.95000     48.81000
  228     3     1      0.08221      38.83200      34.18300     46.95200
  229     3     1      0.08221      38.11900      35.65800     46.31800
  230     3     1      0.08221      39.82900      35.32500     46.07900
  231     3     1      0.08794      37.21400      36.03100     48.71200
  232     3     1      0.08794      38.33300      36.18000     50.05900
  233     3     1      0.08794      38.06800      34.61700     49.30100
  234     3     1      0.08298      41.47600      35.46700     48.09000
  235     3     1      0.08298      40.86300      35.88400     49.67800
  236     3     1      0.08298      40.49300      34.32400     48.96600
  237     3     1      0.08018      42.12500      38.04300     47.46400
  238     3     1      0.08018      41.77000      36.70900     46.36300
  239     3     1      0.08018      42.06900      38.29400     45.72300
  240     3     1      0.09488      36.53400      42.92100     45.88400
  241     3     1      0.09488      36.51900      41.57700     44.77800
  242     3     1      0.09190      35.62000      40.10100     46.53600
  243     3     1      0.09190      35.99300      41.28200     47.76700
  244     3     1      0.11349      34.32400      42.83400     46.79800
  245     3     1      0.08525      33.87300      40.59800     48.40400
  246     3     1      0.08525      32.68400      40.36900     47.18400
  247     3     1      0.08809      30.80500      40.61600     48.74900
  248     3     1      0.08809      30.75500      41.93500     49.90900
  249     3     1      0.08809      31.98800      40.69200     50.04500
  250     3     1      0.07941      30.79100      43.59000     48.01000
  251     3     1      0.07941      30.90300      42.31300     46.80900
  252     3     1      0.07941      32.09000      43.60900     46.83500
  253     3     1      0.08432      33.83000      42.50800     50.00800
  254     3     1      0.08432      33.82700      43.73600     48.75400
  255     3     1      0.08432      32.54100      43.69900     49.94000
  256     3     1      0.08370      33.67200      40.54300     44.88200
  257     3     1      0.08370      34.27600      42.13800     44.44800
  258     3     1      0.08370      32.66200      41.96400     45.10100
  259     4     2     -0.12185      27.94000      22.04800     32.19400
  260     4     2     -0.19123      29.25600      22.72400     32.65900
  261     4     2     -0.16979      30.55600      21.90400     32.50800
  262     4     2     -0.10995      30.86800      21.40600     31.08000
  263     4     2     -0.14697      31.98400      20.32800     30.99200
  264     4     2     -0.04794      33.40300      20.55600     31.60400
  265     4     2     -0.24846      34.34000      19.49400     30.99800
  266     4     2     -0.22810      33.98700      21.94000     31.27000
  267     4     2     -0.23419      33.40900      20.34700     33.13300
  268     4     2     -0.23906      31.03200      22.55800     30.06900
  269     4     2     -0.18357      26.72300      22.97700     32.42400
  270     4     2     -0.18541      26.78200      24.31300     31.65500
  271     4     2     -0.10521      25.46800      25.12700     31.70500
  272     4     2     -0.15407      24.41900      24.55000     30.71100
  273     4     2     -0.06488      22.95200      25.07400     30.75900
  274     4     2     -0.22732      22.47300      25.33100     32.20000
  275     4     2     -0.24295      22.04000      23.99300     30.14300
  276     4     2     -0.23435      22.77800      26.35100     29.91100
  277     4     2     -0.23872      25.77400      26.61500     31.45800
  278     4     2     -0.17393      27.73400      20.67300     32.87400
  279     4     2     -0.18032      26.53100      19.86800     32.34500
  280     4     2     -0.12271      26.54900      18.37800     32.74700
  281     4     2     -0.15724      25.39400      17.60400     32.05500
  282     4     2     -0.06488      25.75400      16.23200     31.42700
  283     4     2     -0.24152      24.45700      15.58800     30.90200
  284     4     2     -0.22599      26.38000      15.27900     32.46400
  285     4     2     -0.23652      26.71800      16.40900     30.23700
  286     4     2     -0.25015      26.49300      18.20900     34.27900
  287     4     1      0.10215      28.01200      21.87900     31.11800
  288     4     1      0.08878      29.15400      23.01000     33.70700
  289     4     1      0.08878      29.39900      23.65900     32.12100
  290     4     1      0.09814      30.53500      21.05900     33.19600
  291     4     1      0.09814      31.37700      22.53300     32.85000
  292     4     1      0.09231      29.98200      20.86600     30.74300
  293     4     1      0.08561      31.58400      19.40600     31.41900
  294     4     1      0.08561      32.10100      20.09200     29.93300
  295     4     1      0.08415      33.98600      18.48200     31.20200
  296     4     1      0.08415      34.42100      19.59700     29.91500
  297     4     1      0.08415      35.35100      19.56700     31.40000
  298     4     1      0.08171      35.02800      22.02000     31.58800
  299     4     1      0.08171      33.44700      22.74000     31.77400
  300     4     1      0.08171      33.95800      22.13800     30.19800
  301     4     1      0.08104      34.42600      20.34800     33.52700
  302     4     1      0.08104      32.87800      21.12900     33.67000
  303     4     1      0.08104      32.95900      19.39400     33.41100
  304     4     1      0.08108      30.09400      23.09600     29.93400
  305     4     1      0.08108      31.32700      22.18800     29.08700
  306     4     1      0.08108      31.77300      23.29000     30.38500
  307     4     1      0.09340      25.82100      22.45000     32.12700
  308     4     1      0.09340      26.60600      23.17500     33.49100
  309     4     1      0.08779      27.58200      24.91100     32.08900
  310     4     1      0.08779      27.07100      24.14000     30.61700
  311     4     1      0.10017      25.08500      25.04200     32.72300
  312     4     1      0.08859      24.37600      23.47600     30.88500
  313     4     1      0.08859      24.80200      24.63900     29.69300
  314     4     1      0.08221      21.41400      25.59300     32.22900
  315     4     1      0.08221      22.60700      24.45000     32.82900
  316     4     1      0.08221      23.01200      26.15400     32.67000
  317     4     1      0.08794      22.07100      23.06400     30.71300
  318     4     1      0.08794      22.33500      23.75700     29.11900
  319     4     1      0.08794      20.99700      24.31400     30.11300
  320     4     1      0.08298      23.32500      27.20200     30.30800
  321     4     1      0.08298      23.11800      26.20000     28.88600
  322     4     1      0.08298      21.73200      26.65400     29.86100
  323     4     1      0.08018      26.02400      26.80700     30.41500
  324     4     1      0.08018      24.93200      27.24700     31.73200
  325     4     1      0.08018      26.61100      26.96000     32.06800
  326     4     1      0.09488      28.62000      20.06000     32.71700
  327     4     1      0.09488      27.65000      20.80900     33.95300
  328     4     1      0.09190      25.59600      20.31900     32.68100
  329     4     1      0.09190      26.52800      19.93500     31.25600
  330     4     1      0.11349      27.49800      17.96900     32.40700
  331     4     1      0.08525      24.96600      18.22400     31.26600
  332     4     1      0.08525      24.57500      17.47900     32.76500
  333     4     1      0.08809      23.73700      15.42500     31.70500
  334     4     1      0.08809      24.64700      14.62000     30.43700
  335     4     1      0.08809      23.97100      16.21600     30.15400
  336     4     1      0.07941      26.56500      14.29200     32.03800
  337     4     1      0.07941      25.72400      15.14200     33.32500
  338     4     1      0.07941      27.33500      15.64900     32.83600
  339     4     1      0.08432      26.31200      17.09700     29.49400
  340     4     1      0.08432      27.68900      16.79900     30.54100
  341     4     1      0.08432      26.90500      15.46100     29.73200
  342     4     1      0.08370      25.61300      18.69300     34.70200
  343     4     1      0.08370      27.37200      18.63600     34.76300
  344     4     1      0.08370      26.45700      17.15800     34.56500
  345     5     2     -0.12185      42.89400      22.94000     16.53200
  346     5     2     -0.19123      42.48900      23.95600     17.63100
  347     5     2     -0.16979      43.26700      25.29000     17.67500
  348     5     2     -0.10995      43.25000      26.11500     16.36900
  349     5     2     -0.14697      44.28300      27.27400     16.31500
  350     5     2     -0.04794      44.35200      28.37100     17.42400
  351     5     2     -0.24846      45.18000      29.54200     16.86200
  352     5     2     -0.22810      42.96900      28.92200     17.81400
  353     5     2     -0.23419      45.08100      27.86600     18.68700
  354     5     2     -0.23906      41.82700      26.52400     15.94100
  355     5     2     -0.18357      42.04700      21.64800     16.62400
  356     5     2     -0.18541      40.53100      21.86200     16.43300
  357     5     2     -0.10521      39.72200      20.55200     16.29400
  358     5     2     -0.15407      39.86400      19.96000     14.86200
  359     5     2     -0.06488      39.31900      18.53000     14.56800
  360     5     2     -0.22732      39.55700      17.56400     15.74400
  361     5     2     -0.24295      40.07100      17.97700     13.34000
  362     5     2     -0.23435      37.82000      18.55800     14.20600
  363     5     2     -0.23872      38.25800      20.80400     16.69700
  364     5     2     -0.17393      44.40900      22.62300     16.58100
  365     5     2     -0.18032      44.91900      21.74500     15.42100
  366     5     2     -0.12271      46.45500      21.74200     15.26700
  367     5     2     -0.15724      46.88100      20.96300     13.99400
  368     5     2     -0.06488      47.96500      21.62700     13.10200
  369     5     2     -0.24152      48.32100      20.64700     11.96800
  370     5     2     -0.22599      49.24800      21.92900     13.89800
  371     5     2     -0.23652      47.43000      22.92400     12.46400
  372     5     2     -0.25015      47.14500      21.17500     16.52400
  373     5     1      0.10215      42.68100      23.39300     15.56200
  374     5     1      0.08878      42.58100      23.47600     18.60600
  375     5     1      0.08878      41.43200      24.20100     17.53300
  376     5     1      0.09814      44.29700      25.09900     17.97700
  377     5     1      0.09814      42.83800      25.88900     18.47700
  378     5     1      0.09231      43.59500      25.44500     15.58000
  379     5     1      0.08561      45.27500      26.82700     16.23000
  380     5     1      0.08561      44.14000      27.76800     15.35300
  381     5     1      0.08415      46.18200      29.22100     16.56700
  382     5     1      0.08415      44.71000      29.98400     15.98200
  383     5     1      0.08415      45.30100      30.34300     17.59200
  384     5     1      0.08171      43.05500      29.77900     18.48300
  385     5     1      0.08171      42.36900      28.17900     18.33700
  386     5     1      0.08171      42.40800      29.25000     16.93700
  387     5     1      0.08104      45.26700      28.68100     19.38800
  388     5     1      0.08104      44.51000      27.12100     19.23600
  389     5     1      0.08104      46.04800      27.42500     18.44400
  390     5     1      0.08108      41.23100      25.65100     15.67800
  391     5     1      0.08108      41.84600      27.16900     15.06200
  392     5     1      0.08108      41.28800      27.05000     16.72800
  393     5     1      0.09340      42.39200      20.95000     15.86700
  394     5     1      0.09340      42.22700      21.15500     17.58000
  395     5     1      0.08779      40.16200      22.41300     17.29700
  396     5     1      0.08779      40.34500      22.50500     15.57000
  397     5     1      0.10017      40.13800      19.84900     17.01700
  398     5     1      0.08859      40.92800      19.94600     14.63000
  399     5     1      0.08859      39.44500      20.66200     14.14000
  400     5     1      0.08221      39.27100      16.54300     15.48700
  401     5     1      0.08221      40.60800      17.54200     16.03600
  402     5     1      0.08221      38.97700      17.84000     16.62400
  403     5     1      0.08794      41.14100      17.88300     13.52900
  404     5     1      0.08794      39.95000      18.62500     12.47100
  405     5     1      0.08794      39.71000      16.98600     13.05800