LAMMPS data file of the system for full atom style

    4914 atoms
    4914 bonds
    9828 angles
   14742 dihedrals

    2 atom types
    2 bond types
    3 angle types
    2 dihedral types

    0.000000    50.000000 xlo xhi
    0.000000    50.000000 ylo yhi
    0.000000    50.000000 zlo zhi

 Masses 

    1       1.0080
    2      12.0110

 Pair Coeffs 

    1       0.0300       2.5000
    2       0.0660       3.5000

 Bond Coeffs 

    1     268.0000        1.5290
    2     340.0000        1.0900

 Angle Coeffs 

    1      33.0000      107.8000
    2      37.5000      110.7000
    3      58.3500      112.7000

 Dihedral Coeffs 

    1       0.0000        0.0000       0.3000        0.0000
    2       0.8500       -0.2000       0.2000        0.0000

 Atoms 

    1     1     2     -0.08737      23.45000      39.47700     41.28100
    2     1     2     -0.17646      24.89800      39.00200     41.53400
    3     1     2     -0.16135      22.49800      39.10600     42.44700
    4     1     2     -0.10480      22.88900      39.10600     39.87400
    5     1     2     -0.16154      23.18900      37.65400     39.40600
    6     1     2     -0.16994      22.65700      36.50300     40.28100
    7     1     2     -0.16817      21.12700      36.33600     40.24200
    8     1     2     -0.16711      20.53600      35.55100     41.42800
    9     1     2     -0.16315      20.88600      34.05000     41.49300
   10     1     2     -0.17226      22.25600      33.68500     42.10500
   11     1     2     -0.18919      22.53900      34.26200     43.50700
   12     1     2     -0.17221      21.48100      33.94600     44.58000
   13     1     2     -0.16323      21.36500      32.45000     44.91900
   14     1     2     -0.16010      20.23000      32.10700     45.90200
   15     1     2     -0.16253      20.38200      32.71600     47.31000
   16     1     2     -0.18898      19.61000      34.03400     47.50000
   17     1     2     -0.17611      19.78200      34.61600     48.91000
   18     1     2     -0.16644      19.21200      36.03500     49.08900
   19     1     2     -0.16665      17.68400      36.14500     48.92600
   20     1     2     -0.23201      17.23700      36.53400     47.50900
   21     1     2     -0.14716      23.38200      40.08600     38.78100
   22     1     2     -0.15905      22.89300      41.54500     38.92900
   23     1     2     -0.14485      23.96600      42.54900     39.40100
   24     1     2     -0.15667      24.78900      43.20000     38.27000
   25     1     2     -0.17521      25.77000      42.26900     37.53600
   26     1     2     -0.16710      26.91300      41.75000     38.43000
   27     1     2     -0.16616      27.96600      40.92600     37.66600
   28     1     2     -0.16286      29.21000      41.70600     37.19200
   29     1     2     -0.15390      28.96200      42.74000     36.07900
   30     1     2     -0.18841      28.72600      44.16700     36.60300
   31     1     2     -0.18157      28.36300      45.15000     35.48200
   32     1     2     -0.18039      28.10700      46.56900     36.01400
   33     1     2     -0.18030      27.81900      47.60100     34.91100
   34     1     2     -0.19118      26.48200      47.37500     34.18700
   35     1     2     -0.19184      26.17300      48.48700     33.17500
   36     1     2     -0.24329      24.84300      48.26100     32.44700
   37     1     2     -0.17950      23.23400      38.76400     43.75700
   38     1     2     -0.17736      24.43800      39.69200     43.97700
   39     1     2     -0.19607      25.47800      39.57800     42.84300
   40     1     1      0.08208      23.57900      37.73000     43.72500
   41     1     1      0.08208      22.54300      38.82700     44.59900
   42     1     1      0.09136      24.91100      39.48400     44.93800
   43     1     1      0.09136      24.08000      40.72100     44.03800
   44     1     1      0.08501      25.90500      40.56400     42.65500
   45     1     1      0.08501      26.31000      38.94900     43.16300
   46     1     1      0.10011      25.54400      39.27400     40.70000
   47     1     1      0.10011      24.92100      37.91500     41.59000
   48     1     1      0.10056      23.49700      40.56300     41.32900
   49     1     1      0.08813      21.82600      39.94700     42.62100
   50     1     1      0.08813      21.84000      38.28100     42.18700
   51     1     1      0.07139      21.80500      39.22500     39.91000
   52     1     1      0.08178      22.79100      37.51200     38.40100
   53     1     1      0.08178      24.26700      37.53300     39.29800
   54     1     1      0.08912      23.01100      36.61200     41.30500
   55     1     1      0.08912      23.10700      35.58000     39.91800
   56     1     1      0.08238      20.83100      35.87500     39.29900
   57     1     1      0.08238      20.65700      37.31900     40.24300
   58     1     1      0.08366      19.45000      35.62400     41.34400
   59     1     1      0.08366      20.77000      36.04900     42.36900
   60     1     1      0.08281      20.11500      33.54600     42.07900
   61     1     1      0.08281      20.80700      33.61500     40.49500
   62     1     1      0.08603      22.33900      32.59900     42.14100
   63     1     1      0.08603      23.05700      33.99200     41.43500
   64     1     1      0.08938      22.65300      35.34400     43.43400
   65     1     1      0.08938      23.51100      33.90000     43.84800
   66     1     1      0.08928      21.75600      34.49000     45.48300
   67     1     1      0.08928      20.51000      34.33800     44.27700
   68     1     1      0.08170      21.18900      31.88500     44.00400
   69     1     1      0.08170      22.31600      32.09000     45.31400
   70     1     1      0.07726      19.26300      32.37100     45.47300
   71     1     1      0.07726      20.21000      31.02100     46.00600
   72     1     1      0.08449      20.00400      31.99700     48.04000
   73     1     1      0.08449      21.43800      32.84900     47.54800
   74     1     1      0.09568      18.55300      33.85200     47.31000
   75     1     1      0.09568      19.93100      34.77100     46.76400
   76     1     1      0.08484      19.33400      33.94300     49.64300
   77     1     1      0.08484      20.84600      34.64900     49.15000
   78     1     1      0.08198      19.72000      36.73800     48.42600
   79     1     1      0.08198      19.46600      36.36000     50.09900
   80     1     1      0.08063      17.31700      36.91300     49.61000
   81     1     1      0.08063      17.20000      35.21900     49.23700
   82     1     1      0.08056      16.15100      36.62500     47.45800
   83     1     1      0.08056      17.65900      37.49500     47.21100
   84     1     1      0.08056      17.53600      35.79900     46.76400
   85     1     1      0.08131      23.02500      39.73000     37.81400
   86     1     1      0.08131      24.46800      40.04300     38.71300
   87     1     1      0.07287      22.47900      41.88800     37.98000
   88     1     1      0.07287      22.05100      41.57000     39.62200
   89     1     1      0.07994      24.62100      42.10800     40.15100
   90     1     1      0.07994      23.44900      43.35600     39.92100
   91     1     1      0.07304      24.10500      43.64100     37.54300
   92     1     1      0.07304      25.35000      44.03900     38.68200
   93     1     1      0.08783      26.18600      42.82200     36.69500
   94     1     1      0.08783      25.23100      41.43800     37.08300
   95     1     1      0.09515      27.39400      42.57000     38.96300
   96     1     1      0.09515      26.48600      41.11600     39.20600
   97     1     1      0.07737      27.50600      40.39600     36.83100
   98     1     1      0.07737      28.32000      40.14100     38.33700
   99     1     1      0.07254      29.71600      42.17000     38.04000
  100     1     1      0.07254      29.91900      40.97100     36.80700
  101     1     1      0.08244      29.83600      42.76400     35.42600
  102     1     1      0.08244      28.13700      42.41300     35.44500
  103     1     1      0.08883      27.93200      44.16900     37.34900
  104     1     1      0.08883      29.62100      44.51300     37.12000
  105     1     1      0.09945      29.16500      45.17500     34.74300
  106     1     1      0.09945      27.47600      44.78500     34.96300
  107     1     1      0.08852      27.28300      46.55600     36.72900
  108     1     1      0.08852      28.98300      46.89900     36.57500
  109     1     1      0.08965      27.81100      48.59400     35.36500
  110     1     1      0.08965      28.63800      47.61000     34.19100
  111     1     1      0.09533      25.67600      47.31700     34.92100
  112     1     1      0.09533      26.49700      46.41500     33.67000
  113     1     1      0.09229      26.14400      49.45200     33.68300
  114     1     1      0.09229      26.97800      48.55100     32.44100
  115     1     1      0.08342      24.84900      47.32300     31.89100
  116     1     1      0.08342      24.00700      48.23000     33.14700
  117     1     1      0.08342      24.64700      49.06400     31.73500
  118     2     2     -0.08737      18.21300      26.55400     41.20300
  119     2     2     -0.17646      19.12300      26.40700     39.96300
  120     2     2     -0.16135      17.09500      25.48100     41.24100
  121     2     2     -0.10480      17.69700      28.00400     41.45300
  122     2     2     -0.16154      17.19500      28.75300     40.18600
  123     2     2     -0.16994      16.02700      28.12300     39.40500
  124     2     2     -0.16817      14.67300      28.18700     40.13400
  125     2     2     -0.16711      13.62300      27.17900     39.63100
  126     2     2     -0.16315      13.07900      27.41700     38.20700
  127     2     2     -0.17226      13.94700      26.89500     37.04000
  128     2     2     -0.18919      14.34700      25.40800     37.11400
  129     2     2     -0.17221      13.18100      24.41500     37.27100
  130     2     2     -0.16323      12.22500      24.38000     36.06700
  131     2     2     -0.16010      10.99000      23.48000     36.26100
  132     2     2     -0.16253      11.29900      21.98000     36.43300
  133     2     2     -0.18898      11.36500      21.52800     37.90300
  134     2     2     -0.17611      11.67500      20.03000     38.04200
  135     2     2     -0.16644      11.96500      19.56900     39.48200
  136     2     2     -0.16665      10.77900      19.70000     40.45700
  137     2     2     -0.23201      10.77600      21.00900     41.26000
  138     2     2     -0.14716      18.76300      28.88200     42.15400
  139     2     2     -0.15905      19.14500      28.44400     43.58600
  140     2     2     -0.14485      20.53500      27.78600     43.71900
  141     2     2     -0.15667      21.69600      28.76900     43.97400
  142     2     2     -0.17521      22.07600      29.67800     42.79200
  143     2     2     -0.16710      22.63900      28.91100     41.58000
  144     2     2     -0.16616      23.14000      29.82800     40.44900
  145     2     2     -0.16286      24.65100      30.14300     40.46300
  146     2     2     -0.15390      25.13500      31.02700     41.62700
  147     2     2     -0.18841      25.66800      30.22700     42.82800
  148     2     2     -0.18157      26.03000      31.12800     44.01600
  149     2     2     -0.18039      26.54200      30.32200     45.22100
  150     2     2     -0.18030      26.99100      31.19600     46.40400
  151     2     2     -0.19118      25.83800      31.94500     47.09200
  152     2     2     -0.19184      26.30500      32.71300     48.33700
  153     2     2     -0.24329      25.15800      33.46600     49.02200
  154     2     2     -0.17950      17.37400      24.26900     40.33100
  155     2     2     -0.17736      18.85800      23.87300     40.37000
  156     2     2     -0.19607      19.77800      25.01300     39.88500
  157     2     1      0.08208      17.09400      24.50800     39.30500
  158     2     1      0.08208      16.74600      23.42800     40.62900
  159     2     1      0.09136      19.03000      22.97500     39.77600
  160     2     1      0.09136      19.12200      23.60700     41.39600
  161     2     1      0.08501      20.69500      25.00300     40.47600
  162     2     1      0.08501      20.08600      24.82800     38.85500
  163     2     1      0.10011      19.89700      27.17400     39.96000
  164     2     1      0.10011      18.53700      26.56900     39.05900
  165     2     1      0.10056      18.84500      26.29000     42.04900
  166     2     1      0.08813      16.98300      25.13900     42.27100
  167     2     1      0.08813      16.12400      25.89700     40.98500
  168     2     1      0.07139      16.86100      27.94000     42.15100
  169     2     1      0.08178      16.89700      29.76500     40.46300
  170     2     1      0.08178      18.03300      28.88900     39.50100
  171     2     1      0.08912      16.26900      27.10000     39.12300
  172     2     1      0.08912      15.93100      28.66500     38.46500
  173     2     1      0.08238      14.27600      29.20200     40.08500
  174     2     1      0.08238      14.82500      27.98800     41.19400
  175     2     1      0.08366      12.77400      27.24200     40.31400
  176     2     1      0.08366      13.98900      26.15800     39.74500
  177     2     1      0.08281      12.10100      26.93900     38.13300
  178     2     1      0.08281      12.88200      28.48000     38.06600
  179     2     1      0.08603      13.41300      27.07800     36.10700
  180     2     1      0.08603      14.85100      27.49500     36.95200
  181     2     1      0.08938      15.04500      25.26500     37.93900
  182     2     1      0.08938      14.91500      25.15000     36.21800
  183     2     1      0.08928      13.61000      23.42300     37.40600
  184     2     1      0.08928      12.62600      24.62900     38.18500
  185     2     1      0.08170      11.86700      25.38800     35.86100
  186     2     1      0.08170      12.77000      24.06900     35.17500
  187     2     1      0.07726      10.38100      23.84400     37.08900
  188     2     1      0.07726      10.36400      23.59500     35.37500
  189     2     1      0.08449      10.51100      21.40600     35.94100
  190     2     1      0.08449      12.22100      21.72500     35.90800
  191     2     1      0.09568      10.41000      21.74400     38.38100
  192     2     1      0.09568      12.11600      22.10300     38.44300
  193     2     1      0.08484      10.85400      19.44400     37.62500
  194     2     1      0.08484      12.54800      19.79300     37.43200
  195     2     1      0.08198      12.84500      20.08100     39.87800
  196     2     1      0.08198      12.24600      18.51600     39.43400
  197     2     1      0.08063      10.82400      18.87500     41.17000
  198     2     1      0.08063       9.83500      19.57800     39.92500
  199     2     1      0.08056       9.93300      21.03600     41.95200
  200     2     1      0.08056      11.68700      21.11100     41.85200
  201     2     1      0.08056      10.70000      21.88700     40.62100
  202     2     1      0.08131      18.37600      29.89900     42.22800
  203     2     1      0.08131      19.64400      28.96200     41.52100
  204     2     1      0.07287      19.09400      29.30300     44.25400
  205     2     1      0.07287      18.38700      27.75500     43.96200
  206     2     1      0.07994      20.75300      27.14200     42.86700
  207     2     1      0.07994      20.49500      27.11300     44.57600
  208     2     1      0.07304      21.45200      29.39000     44.83700
  209     2     1      0.07304      22.57900      28.19900     44.27000
  210     2     1      0.08783      22.81600      30.39300     43.14700
  211     2     1      0.08783      21.22100      30.28500     42.49600
  212     2     1      0.09515      23.43100      28.22700     41.88500
  213     2     1      0.09515      21.85300      28.27400     41.17600
  214     2     1      0.07737      22.55800      30.75000     40.41700
  215     2     1      0.07737      22.92800      29.32800     39.50200
  216     2     1      0.07254      25.23300      29.22200     40.41300
  217     2     1      0.07254      24.87400      30.67000     39.53400
  218     2     1      0.08244      25.94200      31.66500     41.26500
  219     2     1      0.08244      24.34000      31.70900     41.93100
  220     2     1      0.08883      24.93100      29.49200     43.15000
  221     2     1      0.08883      26.54400      29.65500     42.52000
  222     2     1      0.09945      26.78800      31.85100     43.71000
  223     2     1      0.09945      25.15100      31.70500     44.30500
  224     2     1      0.08852      25.77600      29.62000     45.55300
  225     2     1      0.08852      27.38800      29.71100     44.90300
  226     2     1      0.08965      27.48200      30.55300     47.13700
  227     2     1      0.08965      27.75200      31.90400     46.07200
  228     2     1      0.09533      25.05900      31.23400     47.37400
  229     2     1      0.09533      25.37800      32.64300     46.39300
  230     2     1      0.09229      26.75700      32.02200     49.05000
  231     2     1      0.09229      27.08500      33.42400     48.06000
  232     2     1      0.08342      24.70600      34.19700     48.35100
  233     2     1      0.08342      24.37300      32.78200     49.34900
  234     2     1      0.08342      25.51500      34.00200     49.90200
  235     3     2     -0.08737      21.46400      26.87900     19.37200
  236     3     2     -0.17646      21.45000      25.34200     19.21500
  237     3     2     -0.16135      20.66700      27.59000     18.24700
  238     3     2     -0.10480      22.87800      27.48800     19.61700
  239     3     2     -0.16154      24.00800      26.91600     18.71400
  240     3     2     -0.16994      23.84600      27.07400     17.19000
  241     3     2     -0.16817      24.00100      28.52000     16.68700
  242     3     2     -0.16711      23.38800      28.78600     15.29900
  243     3     2     -0.16315      24.08200      28.09800     14.10500
  244     3     2     -0.17226      23.70500      26.62300     13.84300
  245     3     2     -0.18919      22.19700      26.33100     13.70200
  246     3     2     -0.17221      21.45700      27.16700     12.64300
  247     3     2     -0.16323      21.92200      26.90200     11.20100
  248     3     2     -0.16010      21.27400      27.81600     10.14500
  249     3     2     -0.16253      19.74900      27.65700      9.99500
  250     3     2     -0.18898      18.93700      28.68500     10.80400
  251     3     2     -0.17611      17.42300      28.50100     10.63500
  252     3     2     -0.16644      16.56500      29.35700     11.58500
  253     3     2     -0.16665      16.68600      30.87900     11.37300
  254     3     2     -0.23201      17.72300      31.55200     12.28500
  255     3     2     -0.14716      23.31400      27.35100     21.09700
  256     3     2     -0.15905      22.46200      28.14200     22.11500
  257     3     2     -0.14485      21.52200      27.28300     22.98700
  258     3     2     -0.15667      22.15000      26.75600     24.29400
  259     3     2     -0.17521      23.23000      25.67300     24.12900
  260     3     2     -0.16710      22.69400      24.35200     23.54200
  261     3     2     -0.16616      23.74400      23.22700     23.49800
  262     3     2     -0.16286      23.73000      22.25200     24.69400
  263     3     2     -0.15390      24.17400      22.84800     26.04200
  264     3     2     -0.18841      23.00700      23.34600     26.91100
  265     3     2     -0.18157      23.48600      24.04200     28.19200
  266     3     2     -0.18039      22.31600      24.55600     29.04600
  267     3     2     -0.18030      22.75400      25.18900     30.37800
  268     3     2     -0.19118      23.52400      26.50900     30.21100
  269     3     2     -0.19184      23.84400      27.16900     31.56000
  270     3     2     -0.24329      24.61700      28.48300     31.39800
  271     3     2     -0.17950      19.69200      26.66000     17.50100
  272     3     2     -0.17736      19.00500      25.68300     18.46600
  273     3     2     -0.19607      20.01700      24.77200     19.19300
  274     3     1      0.08208      20.23400      26.09300     16.74200
  275     3     1      0.08208      18.95000      27.25200     16.96400
  276     3     1      0.09136      18.27000      25.07500     17.93700
  277     3     1      0.09136      18.44200      26.25800     19.20300
  278     3     1      0.08501      19.67100      24.60400     20.21400
  279     3     1      0.08501      20.03900      23.78900     18.72100
  280     3     1      0.10011      22.01800      24.86800     20.01500
  281     3     1      0.10011      21.95100      25.06600     18.28800
  282     3     1      0.10056      20.87200      27.07600     20.26300
  283     3     1      0.08813      20.10800      28.41400     18.69300
  284     3     1      0.08813      21.32400      28.06600     17.52400
  285     3     1      0.07139      22.81300      28.56000     19.42500
  286     3     1      0.08178      24.95600      27.37700     18.99300
  287     3     1      0.08178      24.13700      25.85600     18.93800
  288     3     1      0.08912      22.90000      26.64700     16.86500
  289     3     1      0.08912      24.61500      26.46700     16.71500
  290     3     1      0.08238      25.05400      28.80300     16.69400
  291     3     1      0.08238      23.51500      29.19900     17.38600
  292     3     1      0.08366      23.45000      29.86300     15.12900
  293     3     1      0.08366      22.31900      28.57300     15.30700
  294     3     1      0.08281      23.84800      28.66600     13.20300
  295     3     1      0.08281      25.16400      28.18200     14.21600
  296     3     1      0.08603      24.22100      26.29100     12.94300
  297     3     1      0.08603      24.10900      25.99000     14.63100
  298     3     1      0.08938      21.71200      26.47600     14.66700
  299     3     1      0.08938      22.06300      25.27100     13.47600
  300     3     1      0.08928      20.39600      26.92900     12.71800
  301     3     1      0.08928      21.54200      28.23000     12.87500
  302     3     1      0.08170      23.00100      27.04100     11.13900
  303     3     1      0.08170      21.74000      25.85700     10.94500
  304     3     1      0.07726      21.53400      28.85800     10.33400
  305     3     1      0.07726      21.73300      27.57700      9.18500
  306     3     1      0.08449      19.49000      27.78100      8.94100
  307     3     1      0.08449      19.45000      26.64000     10.25300
  308     3     1      0.09568      19.21700      29.68700     10.48100
  309     3     1      0.09568      19.19200      28.62100     11.86100
  310     3     1      0.08484      17.14100      28.70200      9.60000
  311     3     1      0.08484      17.17300      27.45300     10.81100
  312     3     1      0.08198      16.77000      29.09700     12.62400
  313     3     1      0.08198      15.52300      29.07700     11.42000
  314     3     1      0.08063      15.71700      31.33500     11.58200
  315     3     1      0.08063      16.89700      31.10200     10.32700
  316     3     1      0.08056      17.74700      32.62900     12.11300
  317     3     1      0.08056      17.48400      31.39400     13.33700
  318     3     1      0.08056      18.73000      31.17400     12.11600
  319     3     1      0.08131      24.33700      27.71900     21.18900
  320     3     1      0.08131      23.37000      26.29800     21.36700
  321     3     1      0.07287      23.11700      28.72200     22.76500
  322     3     1      0.07287      21.87100      28.88800     21.58200
  323     3     1      0.07994      21.08200      26.46700     22.41300
  324     3     1      0.07994      20.67800      27.91200     23.27200
  325     3     1      0.07304      22.57100      27.59600     24.84800
  326     3     1      0.07304      21.35700      26.36100     24.93000
  327     3     1      0.08783      23.66700      25.48600     25.10900
  328     3     1      0.08783      24.05400      26.05300     23.52500
  329     3     1      0.09515      21.80800      24.01700     24.08100
  330     3     1      0.09515      22.35400      24.53800     22.52300
  331     3     1      0.07737      24.74300      23.64000     23.35400
  332     3     1      0.07737      23.55300      22.63300     22.60200
  333     3     1      0.07254      22.75200      21.77700     24.78800
  334     3     1      0.07254      24.41600      21.44000     24.45000
  335     3     1      0.08244      24.70400      22.07700     26.60300
  336     3     1      0.08244      24.90600      23.63900     25.87600
  337     3     1      0.08883      22.38100      24.03500     26.34500
  338     3     1      0.08883      22.36400      22.50300     27.16900
  339     3     1      0.09945      24.09200      23.35000     28.77900
  340     3     1      0.09945      24.13900      24.87200     27.92200
  341     3     1      0.08852      21.72600      25.27400     28.47500
  342     3     1      0.08852      21.64500      23.72400     29.26300
  343     3     1      0.08965      21.86100      25.37500     30.97800
  344     3     1      0.08965      23.35200      24.47500     30.94700
  345     3     1      0.09533      22.94000      27.19700     29.59800
  346     3     1      0.09533      24.45500      26.33000     29.67200
  347     3     1      0.09229      22.91800      27.36400     32.10500
  348     3     1      0.09229      24.42600      26.48400     32.17800
  349     3     1      0.08342      25.57100      28.32300     30.89200
  350     3     1      0.08342      24.04900      29.21000     30.81600
  351     3     1      0.08342      24.83100      28.93300     32.36800
  352     4     2     -0.08737      10.46000      27.56800      8.72800
  353     4     2     -0.17646       9.07300      27.00000      8.35500
  354     4     2     -0.16135      11.61600      26.78100      8.05800
  355     4     2     -0.10480      10.66900      27.80600     10.25400
  356     4     2     -0.16154      10.16700      26.65700     11.17500
  357     4     2     -0.16994      10.79300      25.26400     10.97600
  358     4     2     -0.16817      12.25900      25.16000     11.43000
  359     4     2     -0.16711      13.03800      23.97800     10.82300
  360     4     2     -0.16315      12.60200      22.57000     11.27900
  361     4     2     -0.17226      11.37700      21.96000     10.56100
  362     4     2     -0.18919      11.45300      21.92000      9.02100
  363     4     2     -0.17221      12.69500      21.22200      8.43800
  364     4     2     -0.16323      12.77300      19.71900      8.75500
  365     4     2     -0.16010      14.06800      19.03400      8.27900
  366     4     2     -0.16253      14.27600      19.02300      6.75200
  367     4     2     -0.18898      15.16500      20.17000      6.24100
  368     4     2     -0.17611      15.35200      20.13300      4.71700
  369     4     2     -0.16644      16.05100      21.37300      4.12900
  370     4     2     -0.16665      17.50900      21.57300      4.58300
  371     4     2     -0.23201      17.66000      22.50800      5.79300
  372     4     2     -0.14716      10.02000      29.13200     10.72400
  373     4     2     -0.15905      10.63500      30.41800     10.13000
  374     4     2     -0.14485       9.77000      31.12500      9.06400
  375     4     2     -0.15667       8.76900      32.15600      9.62200
  376     4     2     -0.17521       7.58400      31.57800     10.41600
  377     4     2     -0.16710       6.63100      30.71900      9.56200
  378     4     2     -0.16616       5.37700      30.24900     10.32300
  379     4     2     -0.16286       4.12000      31.12600     10.14800
  380     4     2     -0.15390       4.19300      32.52500     10.78600
  381     4     2     -0.18841       4.64300      33.62500      9.81000
  382     4     2     -0.18157       4.82100      34.98400     10.50200
  383     4     2     -0.18039       5.29200      36.07500      9.52700
  384     4     2     -0.18030       5.40400      37.46900     10.16600
  385     4     2     -0.19118       6.52900      37.58200     11.20800
  386     4     2     -0.19184       6.68700      39.01400     11.74000
  387     4     2     -0.24329       7.80400      39.12800     12.78400
  388     4     2     -0.17950      11.16400      25.92600      6.85900
  389     4     2     -0.17736      10.10900      26.66000      6.01700
  390     4     2     -0.19607       8.84000      26.98900      6.83000
  391     4     1      0.08208      10.74500      24.98400      7.21600
  392     4     1      0.08208      12.02600      25.66000      6.24500
  393     4     1      0.09136       9.84600      26.07300      5.13600
  394     4     1      0.09136      10.54700      27.58600      5.63900
  395     4     1      0.08501       8.45500      27.95800      6.50900
  396     4     1      0.08501       8.05500      26.26700      6.60200
  397     4     1      0.10011       8.28000      27.56900      8.84000
  398     4     1      0.10011       8.98300      25.98100      8.73000
  399     4     1      0.10056      10.50500      28.54200      8.24400
  400     4     1      0.08813      12.37000      27.49600      7.72600
  401     4     1      0.08813      12.13800      26.14400      8.76800
  402     4     1      0.07139      11.74000      27.92300     10.42700
  403     4     1      0.08178      10.32200      26.94000     12.21700
  404     4     1      0.08178       9.08500      26.56700     11.07000
  405     4     1      0.08912      10.68200      24.94500      9.94100