LAMMPS data file of the system for full atom style

    4992 atoms
    4992 bonds
    9984 angles
   14976 dihedrals

    2 atom types
    2 bond types
    3 angle types
    2 dihedral types

    0.000000    50.000000 xlo xhi
    0.000000    50.000000 ylo yhi
    0.000000    50.000000 zlo zhi

 Masses 

    1       1.0080
    2      12.0110

 Pair Coeffs 

    1       0.0300       2.5000
    2       0.0660       3.5000

 Bond Coeffs 

    1     268.0000        1.5290
    2     340.0000        1.0900

 Angle Coeffs 

    1      33.0000      107.8000
    2      37.5000      110.7000
    3      58.3500      112.7000

 Dihedral Coeffs 

    1       0.0000        0.0000       0.3000        0.0000
    2       0.8500       -0.2000       0.2000        0.0000

 Atoms 

    1     1     2     -0.16573      29.62000      28.65400     43.74300
    2     1     2     -0.15783      30.78900      29.52600     43.24800
    3     1     2     -0.17450      29.92400      27.79500     44.98800
    4     1     2     -0.18052      31.08600      26.79400     44.82700
    5     1     2     -0.17658      30.92500      25.78200     43.67900
    6     1     2     -0.17907      29.69600      24.86800     43.82900
    7     1     2     -0.18405      29.63500      23.74500     42.78200
    8     1     2     -0.17822      29.41500      24.25500     41.34600
    9     1     2     -0.17742      29.14900      23.13400     40.32900
   10     1     2     -0.19022      30.36000      22.21800     40.09100
   11     1     2     -0.24075      30.09900      21.17600     38.99600
   12     1     2     -0.15830      31.33500      30.56000     44.25300
   13     1     2     -0.15899      30.35700      31.69700     44.61000
   14     1     2     -0.18845      29.54100      31.44300     45.89200
   15     1     2     -0.18144      28.65800      32.63300     46.31100
   16     1     2     -0.17550      27.56700      33.03200     45.30100
   17     1     2     -0.16958      26.53800      31.92100     45.02500
   18     1     2     -0.16228      25.40600      32.33300     44.06300
   19     1     2     -0.15556      24.12500      32.85600     44.74400
   20     1     2     -0.16376      24.24000      34.22100     45.44800
   21     1     2     -0.17821      24.69200      35.39500     44.55200
   22     1     2     -0.12272      23.78900      35.68800     43.33500
   23     1     2     -0.18458      24.35900      36.81900     42.47200
   24     1     2     -0.18716      23.82300      38.12200     43.07700
   25     1     2     -0.19163      22.57800      37.73800     43.89100
   26     1     2     -0.18761      22.40200      36.22500     43.71800
   27     1     1      0.11311      23.69800      34.78200     42.73200
   28     1     1      0.09903      23.98000      36.71700     41.45400
   29     1     1      0.09903      25.44800      36.80300     42.40400
   30     1     1      0.09220      24.57100      38.56800     43.73400
   31     1     1      0.09220      23.59500      38.85700     42.30300
   32     1     1      0.09366      21.69000      38.28400     43.56900
   33     1     1      0.09366      22.73700      37.97700     44.94400
   34     1     1      0.09575      21.97000      35.74900     44.59700
   35     1     1      0.09575      21.71100      36.03900     42.89400
   36     1     1      0.09215      24.77300      36.29200     45.16800
   37     1     1      0.09215      25.70600      35.19900     44.20200
   38     1     1      0.08224      23.27900      34.46100     45.90200
   39     1     1      0.08224      24.92200      34.13100     46.29300
   40     1     1      0.07644      23.78200      32.11600     45.46900
   41     1     1      0.07644      23.32900      32.90800     44.00100
   42     1     1      0.07843      25.76900      33.03400     43.31100
   43     1     1      0.07843      25.12000      31.44400     43.49900
   44     1     1      0.08686      26.12100      31.54400     45.96000
   45     1     1      0.08686      27.06200      31.07700     44.57500
   46     1     1      0.09093      28.02200      33.35600     44.36500
   47     1     1      0.09093      27.06000      33.91300     45.69200
   48     1     1      0.08822      28.18600      32.40100     47.26800
   49     1     1      0.08822      29.29500      33.49700     46.50500
   50     1     1      0.08527      28.92900      30.54900     45.79100
   51     1     1      0.08527      30.23000      31.22700     46.70900
   52     1     1      0.08790      30.93400      32.61200     44.75600
   53     1     1      0.08790      29.69900      31.89500     43.76300
   54     1     1      0.08047      31.71000      30.07200     45.15200
   55     1     1      0.08047      32.21400      31.01400     43.79500
   56     1     1      0.07702      31.60700      28.87600     42.93500
   57     1     1      0.07702      30.47800      30.04500     42.34000
   58     1     1      0.08467      29.29700      28.00300     42.93000
   59     1     1      0.08467      28.75700      29.28900     43.94300
   60     1     1      0.08483      29.01900      27.25700     45.27300
   61     1     1      0.08483      30.13800      28.44800     45.83400
   62     1     1      0.08511      31.21300      26.25200     45.76500
   63     1     1      0.08511      32.01800      27.34500     44.68800
   64     1     1      0.09421      31.82400      25.16400     43.63800
   65     1     1      0.09421      30.89100      26.31000     42.72700
   66     1     1      0.09095      28.77900      25.45800     43.78100
   67     1     1      0.09095      29.70900      24.41600     44.82200
   68     1     1      0.08582      30.54700      23.14800     42.83700
   69     1     1      0.08582      28.81900      23.07000     43.04700
   70     1     1      0.08721      28.56200      24.93500     41.34100
   71     1     1      0.08721      30.27000      24.84700     41.01900
   72     1     1      0.09259      28.85900      23.59100     39.38100
   73     1     1      0.09259      28.29000      22.54100     40.64800
   74     1     1      0.09227      31.22900      22.82000     39.81500
   75     1     1      0.09227      30.62700      21.70200     41.01300
   76     1     1      0.08304      30.97200      20.53900     38.85000
   77     1     1      0.08304      29.87400      21.65200     38.04000
   78     1     1      0.08304      29.25900      20.53100     39.25500
   79     2     2     -0.16573      16.08300      25.88700     13.14200
   80     2     2     -0.15783      15.57000      27.33500     13.01900
   81     2     2     -0.17450      17.21800      25.50900     12.16900
   82     2     2     -0.18052      16.87600      25.65300     10.67200
   83     2     2     -0.17658      15.66000      24.83600     10.19700
   84     2     2     -0.17907      15.83200      23.31600     10.37100
   85     2     2     -0.18405      14.69900      22.49400      9.73600
   86     2     2     -0.17822      13.33600      22.69000     10.42400
   87     2     2     -0.17742      12.25000      21.72300      9.92900
   88     2     2     -0.19022      11.83500      21.96000      8.46800
   89     2     2     -0.24075      10.67900      21.05100      8.03400
   90     2     2     -0.15830      16.61400      28.44400     13.26300
   91     2     2     -0.15899      17.14700      28.52800     14.70600
   92     2     2     -0.18845      18.46500      27.76200     14.93200
   93     2     2     -0.18144      19.05800      27.95200     16.34100
   94     2     2     -0.17550      18.18000      27.44300     17.50000
   95     2     2     -0.16958      17.89400      25.93200     17.44600
   96     2     2     -0.16228      17.06900      25.40300     18.63500
   97     2     2     -0.15556      17.89600      24.84200     19.81100
   98     2     2     -0.16376      18.70500      25.87100     20.62300
   99     2     2     -0.17821      17.88000      27.01200     21.25800
  100     2     2     -0.12272      16.77200      26.56500     22.23600
  101     2     2     -0.18458      15.96600      27.76100     22.75600
  102     2     2     -0.18716      16.72500      28.27800     23.98400
  103     2     2     -0.19163      17.60200      27.11500     24.46900
  104     2     2     -0.18761      17.31300      25.93900     23.52900
  105     2     1      0.11311      16.10200      25.87300     21.72300
  106     2     1      0.09903      14.97800      27.41900     23.06600
  107     2     1      0.09903      15.80700      28.53500     22.00300
  108     2     1      0.09220      17.35400      29.12600     23.70900
  109     2     1      0.09220      16.04000      28.62500     24.75900
  110     2     1      0.09366      17.40300      26.85400     25.50900
  111     2     1      0.09366      18.65600      27.39400     24.40400
  112     2     1      0.09575      18.18000      25.29700     23.38100
  113     2     1      0.09575      16.53600      25.31300     23.97100
  114     2     1      0.09215      18.56300      27.69100     21.77000
  115     2     1      0.09215      17.43200      27.60700     20.46200
  116     2     1      0.08224      19.25500      25.34500     21.40200
  117     2     1      0.08224      19.47900      26.29900     19.98800
  118     2     1      0.07644      18.57900      24.08100     19.43100
  119     2     1      0.07644      17.22800      24.30600     20.48500
  120     2     1      0.07843      16.35300      26.15200     18.97800
  121     2     1      0.07843      16.45400      24.58100     18.26500
  122     2     1      0.08686      18.82400      25.36900     17.35200
  123     2     1      0.08686      17.33000      25.72400     16.53600
  124     2     1      0.09093      17.24100      27.99700     17.53000
  125     2     1      0.09093      18.68700      27.68900     18.43100
  126     2     1      0.08822      20.02600      27.44900     16.38500
  127     2     1      0.08822      19.27300      29.01000     16.49700
  128     2     1      0.08527      18.33700      26.70200     14.72600
  129     2     1      0.08527      19.20000      28.10900     14.20500
  130     2     1      0.08790      17.32400      29.57800     14.94500
  131     2     1      0.08790      16.37800      28.19200     15.40200
  132     2     1      0.08047      17.43300      28.37500     12.54700
  133     2     1      0.08047      16.12500      29.39200     13.03600
  134     2     1      0.07702      15.13600      27.47400     12.02900
  135     2     1      0.07702      14.74000      27.47100     13.71300
  136     2     1      0.08467      15.24400      25.20400     12.99600
  137     2     1      0.08467      16.40800      25.70600     14.16600
  138     2     1      0.08483      17.52900      24.48400     12.37300
  139     2     1      0.08483      18.09800      26.11600     12.38600
  140     2     1      0.08511      17.74900      25.36700     10.08400
  141     2     1      0.08511      16.70800      26.70600     10.44000
  142     2     1      0.09421      15.49200      25.05400      9.14100
  143     2     1      0.09421      14.76400      25.17800     10.71200
  144     2     1      0.09095      15.91100      23.06500     11.43100
  145     2     1      0.09095      16.77700      23.01100      9.92000
  146     2     1      0.08582      14.62600      22.73700      8.67500
  147     2     1      0.08582      14.97100      21.43800      9.78300
  148     2     1      0.08721      13.46000      22.54800     11.49900
  149     2     1      0.08721      12.99200      23.71800     10.29800
  150     2     1      0.09259      11.37400      21.83200     10.56800
  151     2     1      0.09259      12.58700      20.69200     10.05800
  152     2     1      0.09227      11.54100      23.00400      8.33300
  153     2     1      0.09227      12.68300      21.79400      7.80400
  154     2     1      0.08304      10.40500      21.23800      6.99500
  155     2     1      0.08304       9.79000      21.22000      8.64400
  156     2     1      0.08304      10.94900      19.99800      8.12000
  157     3     2     -0.16573      13.38700      10.42300      8.87900
  158     3     2     -0.15783      13.64000      11.32600     10.10100
  159     3     2     -0.17450      11.94700      10.45800      8.32600
  160     3     2     -0.18052      10.84900      10.04100      9.32500
  161     3     2     -0.17658      11.00800       8.63200      9.92300
  162     3     2     -0.17907      10.96900       7.50700      8.87200
  163     3     2     -0.18405      10.94800       6.09700      9.48300
  164     3     2     -0.17822      12.24800       5.72800     10.22100
  165     3     2     -0.17742      12.31300       4.25500     10.65500
  166     3     2     -0.19022      11.28900       3.88700     11.74100
  167     3     2     -0.24075      11.44800       2.44100     12.22700
  168     3     2     -0.15830      13.38900      12.83300      9.89200
  169     3     2     -0.15899      14.35900      13.52300      8.91300
  170     3     2     -0.18845      13.82900      13.61900      7.46900
  171     3     2     -0.18144      14.74600      14.41800      6.52400
  172     3     2     -0.17550      16.15400      13.82800      6.31800
  173     3     2     -0.16958      16.15300      12.42200      5.69200
  174     3     2     -0.16228      17.55900      11.85000      5.42300
  175     3     2     -0.15556      18.10600      12.09300      4.00200
  176     3     2     -0.16376      18.45800      13.55100      3.65000
  177     3     2     -0.17821      19.49900      14.22300      4.57100
  178     3     2     -0.12272      20.87400      13.52400      4.64100
  179     3     2     -0.18458      21.81000      14.22400      5.63200
  180     3     2     -0.18716      22.51000      15.33400      4.83800
  181     3     2     -0.19163      22.40000      14.93900      3.35700
  182     3     2     -0.18761      21.66400      13.59500      3.32600
  183     3     1      0.11311      20.73100      12.48700      4.94900
  184     3     1      0.09903      22.55900      13.51100      5.98100
  185     3     1      0.09903      21.29800      14.60000      6.51900
  186     3     1      0.09220      22.01000      16.28900      5.00400
  187     3     1      0.09220      23.54800      15.45600      5.15300
  188     3     1      0.09366      23.37600      14.87200      2.87500
  189     3     1      0.09366      21.82500      15.69200      2.81600
  190     3     1      0.09575      21.05100      13.47200      2.43400
  191     3     1      0.09575      22.39800      12.78800      3.31100
  192     3     1      0.09215      19.63400      15.25600      4.24700
  193     3     1      0.09215      19.08600      14.29400      5.57700
  194     3     1      0.08224      18.81000      13.58500      2.62000
  195     3     1      0.08224      17.54600      14.14700      3.64400
  196     3     1      0.07644      17.38100      11.72200      3.27600
  197     3     1      0.07644      18.99000      11.47200      3.85500
  198     3     1      0.07843      18.26800      12.18400      6.18200
  199     3     1      0.07843      17.50000      10.76800      5.55600
  200     3     1      0.08686      15.56000      12.41000      4.77600
  201     3     1      0.08686      15.64800      11.74400      6.37900
  202     3     1      0.09093      16.69600      13.81200      7.26300
  203     3     1      0.09093      16.70900      14.51400      5.68100
  204     3     1      0.08822      14.25600      14.50900      5.55200
  205     3     1      0.08822      14.84000      15.43800      6.89800
  206     3     1      0.08527      13.64700      12.63000      7.05600
  207     3     1      0.08527      12.85300      14.10600      7.48700
  208     3     1      0.08790      14.54300      14.53700      9.27100
  209     3     1      0.08790      15.32600      13.02000      8.93800
  210     3     1      0.08047      12.35300      13.02300      9.61300
  211     3     1      0.08047      13.50800      13.31200     10.86500
  212     3     1      0.07702      13.02200      10.98000     10.93100
  213     3     1      0.07702      14.66800      11.18100     10.43600
  214     3     1      0.08467      13.64400       9.39700      9.14200
  215     3     1      0.08467      14.08600      10.68600      8.08600
  216     3     1      0.08483      11.89500       9.82000      7.44200
  217     3     1      0.08483      11.72400      11.46000      7.95900
  218     3     1      0.08511       9.88000      10.11000      8.82900
  219     3     1      0.08511      10.80600      10.76900     10.13700
  220     3     1      0.09421      10.20400       8.47100     10.64300
  221     3     1      0.09421      11.93000       8.58000     10.50000
  222     3     1      0.09095      11.82000       7.59500      8.19400
  223     3     1      0.09095      10.07900       7.63000      8.25300
  224     3     1      0.08582      10.09300       6.00500     10.15300
  225     3     1      0.08582      10.78000       5.37600      8.68100
  226     3     1      0.08721      13.09600       5.93200      9.56600
  227     3     1      0.08721      12.38400       6.36900     11.09300
  228     3     1      0.09259      13.31700       4.05100     11.03100
  229     3     1      0.09259      12.18400       3.60800      9.78500
  230     3     1      0.09227      11.39400       4.56600     12.59000
  231     3     1      0.09227      10.27600       4.02400     11.36300
  232     3     1      0.08304      10.70900       2.20600     12.99400
  233     3     1      0.08304      12.43600       2.27300     12.65900
  234     3     1      0.08304      11.31400       1.73100     11.41100
  235     4     2     -0.16573      28.91800      26.50500     38.31900
  236     4     2     -0.15783      29.84500      27.71700     38.52800
  237     4     2     -0.17450      27.64100      26.79000     37.50200
  238     4     2     -0.18052      26.71000      27.86800     38.09200
  239     4     2     -0.17658      26.21000      27.59100     39.52200
  240     4     2     -0.17907      25.37500      26.30300     39.64500
  241     4     2     -0.18405      24.72900      26.12100     41.02800
  242     4     2     -0.17822      25.75000      25.88600     42.15600
  243     4     2     -0.17742      25.10700      25.50100     43.49800
  244     4     2     -0.19022      24.28000      26.63200     44.13100
  245     4     2     -0.24075      23.73800      26.25400     45.51500
  246     4     2     -0.15830      30.39800      28.37400     37.24700
  247     4     2     -0.15899      31.37200      27.49800     36.43500
  248     4     2     -0.18845      30.70300      26.71200     35.29100
  249     4     2     -0.18144      31.69700      25.93600     34.40700
  250     4     2     -0.17550      32.50500      24.84100     35.12900
  251     4     2     -0.16958      31.63600      23.72400     35.73300
  252     4     2     -0.16228      32.43900      22.59100     36.40200
  253     4     2     -0.15556      32.74000      21.37800     35.49800
  254     4     2     -0.16376      33.73500      21.62000     34.34800
  255     4     2     -0.17821      35.13100      22.12500     34.77200
  256     4     2     -0.12272      35.90700      21.20200     35.73600
  257     4     2     -0.18458      37.24500      21.82300     36.15300
  258     4     2     -0.18716      38.25500      21.40700     35.07700
  259     4     2     -0.19163      37.66500      20.16800     34.38800
  260     4     2     -0.18761      36.33800      19.87400     35.09700
  261     4     1      0.11311      35.29800      21.02300     36.62500
  262     4     1      0.09903      37.55200      21.40000     37.11100
  263     4     1      0.09903      37.19600      22.90400     36.28900
  264     4     1      0.09220      38.38200      22.21000     34.34900
  265     4     1      0.09220      39.23700      21.20700     35.50800
  266     4     1      0.09366      38.34000      19.31200     34.43000
  267     4     1      0.09366      37.48500      20.38200     33.33300
  268     4     1      0.09575      35.59300      19.44000     34.43200
  269     4     1      0.09575      36.51200      19.14200     35.88700
  270     4     1      0.09215      35.72700      22.29400     33.87400
  271     4     1      0.09215      35.02500      23.10800     35.23100
  272     4     1      0.08224      33.84100      20.69600     33.77900
  273     4     1      0.08224      33.29900      22.32300     33.64000
  274     4     1      0.07644      31.80300      21.00700     35.08000
  275     4     1      0.07644      33.11000      20.56200     36.11900
  276     4     1      0.07843      33.34900      22.97700     36.86200
  277     4     1      0.07843      31.84200      22.21900     37.23700
  278     4     1      0.08686      30.96000      23.31400     34.98000
  279     4     1      0.08686      30.99300      24.16600     36.49400
  280     4     1      0.09093      33.12900      25.28500     35.90500
  281     4     1      0.09093      33.20200      24.41600     34.41000
  282     4     1      0.08822      31.15200      25.48300     33.57800
  283     4     1      0.08822      32.39000      26.64200     33.94700
  284     4     1      0.08527      29.94600      26.03300     35.67700
  285     4     1      0.08527      30.16000      27.41300     34.65600
  286     4     1      0.08790      32.13200      28.14600     35.99700
  287     4     1      0.08790      31.90700      26.82500     37.10600
  288     4     1      0.08047      29.58900      28.74500     36.61700
  289     4     1      0.08047      30.94000      29.26800     37.55800
  290     4     1      0.07702      29.31500      28.47300     39.10800
  291     4     1      0.07702      30.68200      27.41200     39.15800
  292     4     1      0.08467      28.63700      26.10600     39.29400
  293     4     1      0.08467      29.47900      25.69900     37.84600
  294     4     1      0.08483      27.08600      25.85900     37.38100
  295     4     1      0.08483      27.91700      27.08300     36.48900
  296     4     1      0.08511      25.85000      27.98900     37.43200
  297     4     1      0.08511      27.22000      28.83200     38.07500
  298     4     1      0.09421      25.60300      28.43800     39.84400
  299     4     1      0.09421      27.05600      27.56100     40.20700
  300     4     1      0.09095      25.99000      25.43100     39.41500
  301     4     1      0.09095      24.58600      26.31900     38.89200
  302     4     1      0.08582      24.10600      26.98700     41.25300
  303     4     1      0.08582      24.05100      25.26700     40.98100
  304     4     1      0.08721      26.42900      25.08700     41.85700
  305     4     1      0.08721      26.37300      26.77100     42.29300
  306     4     1      0.09259      25.89900      25.21200     44.18900
  307     4     1      0.09259      24.48600      24.61200     43.36800
  308     4     1      0.09227      24.89200      27.53100     44.21800
  309     4     1      0.09227      23.44300      26.89200     43.48400
  310     4     1      0.08304      23.15400      27.07100     45.94100
  311     4     1      0.08304      24.54800      26.03000     46.21200
  312     4     1      0.08304      23.09100      25.37800     45.46200
  313     5     2     -0.16573       9.08000       3.86400      4.74500
  314     5     2     -0.15783      10.00200       2.95900      3.90500
  315     5     2     -0.17450       8.86700       3.40900      6.20300
  316     5     2     -0.18052       8.25400       2.00300      6.37000
  317     5     2     -0.17658       6.88900       1.80000      5.68900
  318     5     2     -0.17907       5.78500       2.72800      6.22800
  319     5     2     -0.18405       4.38700       2.40300      5.67800
  320     5     2     -0.17822       4.24500       2.66800      4.16800
  321     5     2     -0.17742       2.80200       2.54300      3.65400
  322     5     2     -0.19022       2.24900       1.10900      3.71500
  323     5     2     -0.24075       0.84900       0.99700      3.10000
  324     5     2     -0.15830      11.44300       2.79200      4.42600
  325     5     2     -0.15899      12.30200       4.07100      4.38100
  326     5     2     -0.18845      12.31800       4.86100      5.70400
  327     5     2     -0.18144      13.27400       6.06800      5.69400
  328     5     2     -0.17550      12.94300       7.16300      4.66200
  329     5     2     -0.16958      11.56500       7.81600      4.86900
  330     5     2     -0.16228      11.25200       8.95600      3.87900
  331     5     2     -0.15556      11.60100      10.37300      4.37900
  332     5     2     -0.16376      13.10100      10.69200      4.51900
  333     5     2     -0.17821      13.93700      10.53400      3.23000
  334     5     2     -0.12272      13.48900      11.40500      2.03600
  335     5     2     -0.18458      14.33300      11.12400      0.78800
  336     5     2     -0.18716      15.55600      12.04300      0.89100
  337     5     2     -0.19163      15.16300      13.17800      1.84800
  338     5     2     -0.18761      13.71100      12.90800      2.25900
  339     5     1      0.11311      12.44000      11.19800      1.81800
  340     5     1      0.09903      13.75900      11.39400     -0.10000
  341     5     1      0.09903      14.60400      10.07300      0.67700
  342     5     1      0.09220      16.40700      11.49400      1.29700
  343     5     1      0.09220      15.85500      12.42000     -0.08900
  344     5     1      0.09366      15.27300      14.16100      1.39000
  345     5     1      0.09366      15.80900      13.15900      2.72800
  346     5     1      0.09575      13.49200      13.24200      3.27200
  347     5     1      0.09575      13.04500      13.46500      1.59800
  348     5     1      0.09215      14.98100      10.74800      3.46300
  349     5     1      0.09215      13.92400       9.48600      2.92800
  350     5     1      0.08224      13.20700      11.70800      4.89600
  351     5     1      0.08224      13.52800      10.06700      5.30200
  352     5     1      0.07644      11.11600      10.53800      5.34200
  353     5     1      0.07644      11.14600      11.10200      3.70900
  354     5     1      0.07843      11.69800       8.75900      2.90400
  355     5     1      0.07843      10.17500       8.94300      3.70000
  356     5     1      0.08686      11.45800       8.16800      5.89600
  357     5     1      0.08686      10.80200       7.04900      4.74000
  358     5     1      0.09093      13.01300       6.75900      3.65100
  359     5     1      0.09093      13.72200       7.92000      4.72100
  360     5     1      0.08822      13.28800       6.51500      6.68900
  361     5     1      0.08822      14.29200       5.71500      5.52100
  362     5     1      0.08527      11.31600       5.18800      5.97300
  363     5     1      0.08527      12.62600       4.19100      6.50800
  364     5     1      0.08790      13.32900       3.78600      4.14900
  365     5     1      0.08790      11.97700       4.70400      3.55500
  366     5     1      0.08047      11.45100       2.35200      5.42300
  367     5     1      0.08047      11.92500       2.04900      3.78900
  368     5     1      0.07702       9.54400       1.97300      3.81700
  369     5     1      0.07702      10.03600       3.34600      2.88500
  370     5     1      0.08467       8.11200       3.93800      4.24800
  371     5     1      0.08467       9.47000       4.88200      4.73600
  372     5     1      0.08483       8.23900       4.14100      6.71200
  373     5     1      0.08483       9.81800       3.44000      6.73500
  374     5     1      0.08511       8.15700       1.78800      7.43500
  375     5     1      0.08511       8.95500       1.25800      5.99100
  376     5     1      0.09421       6.58200       0.76300      5.83700
  377     5     1      0.09421       6.99400       1.92100      4.61200
  378     5     1      0.09095       6.02800       3.76900      6.00900
  379     5     1      0.09095       5.75700       2.65000      7.31600
  380     5     1      0.08582       4.14000       1.36600      5.90600
  381     5     1      0.08582       3.65600       3.01100      6.21400
  382     5     1      0.08721       4.60100       3.67600      3.95200
  383     5     1      0.08721       4.89100       1.99500      3.60300
  384     5     1      0.09259       2.77400       2.88900      2.62000
  385     5     1      0.09259       2.15100       3.21800      4.21300
  386     5     1      0.09227       2.92700       0.43100      3.19300
  387     5     1      0.09227       2.21000       0.76700      4.74900
  388     5     1      0.08304       0.48000      -0.02800      3.15800
  389     5     1      0.08304       0.85300       1.28600      2.04800
  390     5     1      0.08304       0.13500       1.63500      3.62100
  391     6     2     -0.16573      37.09500       9.72500     27.09000
  392     6     2     -0.15783      36.78900      10.55200     25.82700
  393     6     2     -0.17450      38.44300      10.04200     27.77000
  394     6     2     -0.18052      39.69000       9.83700     26.88500
  395     6     2     -0.17658      39.86000       8.41800     26.31300
  396     6     2     -0.17907      40.01500       7.33100     27.39200
  397     6     2     -0.18405      40.36300       5.94600     26.82200
  398     6     2     -0.17822      39.23300       5.32700     25.98000
  399     6     2     -0.17742      39.49200       3.86600     25.58100
  400     6     2     -0.19022      40.66500       3.69400     24.60100
  401     6     2     -0.24075      40.83200       2.24000     24.14100
  402     6     2     -0.15830      36.72600      12.08100     26.01900
  403     6     2     -0.15899      35.55400      12.57800     26.88800
  404     6     2     -0.18845      35.91900      12.78700     28.37000
  405     6     2     -0.18144      34.78200      13.40100     29.20800