LAMMPS data file of the system for full atom style

    4960 atoms
    5040 bonds
    9120 angles
   13200 dihedrals
    1120 impropers

    5 atom types
    8 bond types
   11 angle types
   10 dihedral types
    1 improper types

    0.000000    50.000000 xlo xhi
    0.000000    50.000000 ylo yhi
    0.000000    50.000000 zlo zhi

 Masses 

    1       1.0080
    2       1.0080
    3      12.0110
    4      12.0110
    5      12.0110

 Pair Coeffs 

    1       0.0300       2.4200
    2       0.0300       2.5000
    3       0.0660       3.5000
    4       0.0700       3.5500
    5       0.0760       3.5500

 Bond Coeffs 

    1     268.0000        1.5290
    2     317.0000        1.5100
    3     340.0000        1.0800
    4     340.0000        1.0900
    5     367.0000        1.0800
    6     427.0000        1.4330
    7     469.0000        1.4000
    8     549.0000        1.3400

 Angle Coeffs 

    1      33.0000      107.8000
    2      35.0000      109.5000
    3      35.0000      117.0000
    4      35.0000      120.0000
    5      37.5000      110.7000
    6      46.9000      116.8000
    7      58.3500      112.7000
    8      63.0000      111.1000
    9      63.0000      120.0000
   10      70.0000      124.0000
   11      85.0000      117.0000

 Dihedral Coeffs 

    1       0.0000       -8.0000       0.0000        0.0000
    2       0.0000        0.0000      -0.3720        0.0000
    3       0.0000        0.0000       0.3000        0.0000
    4       0.0000        0.0000       0.3180        0.0000
    5       0.0000        0.0000       0.3660        0.0000
    6       0.0000        3.4310       0.0000        0.0000
    7       0.0000        7.2500       0.0000        0.0000
    8       0.0000       14.0000       0.0000        0.0000
    9       0.3460        0.4050      -0.9040        0.0000
   10       0.8500       -0.2000       0.2000        0.0000

 Improper Coeffs 

    1       2.5000     -1     2

 Atoms 

    1     1     3     -0.17043      15.56500      33.58300     38.42700
    2     1     3     -0.16009      16.81200      33.31500     39.29000
    3     1     3     -0.18168      14.45700      32.52800     38.60900
    4     1     3     -0.17843      13.20000      32.80500     37.76900
    5     1     3     -0.18866      13.42500      32.66000     36.25300
    6     1     3     -0.18448      12.12600      32.73000     35.43300
    7     1     3     -0.16233      11.46400      34.12100     35.44700
    8     1     3     -0.16480      10.22900      34.23600     34.53100
    9     1     3     -0.15082       8.87500      33.98700     35.22500
   10     1     3     -0.16705       8.63100      32.55700     35.74100
   11     1     3     -0.17738       8.67500      31.45700     34.66400
   12     1     3     -0.23917       7.57800      31.59500     33.59900
   13     1     5     -0.14757      16.55500      33.53000     40.77600
   14     1     5     -0.04113      17.02700      34.51500     41.58300
   15     1     4     -0.03469      17.81000      35.61400     41.04500
   16     1     4     -0.12593      19.03300      35.98400     41.65200
   17     1     4     -0.14642      19.80900      37.05200     41.16100
   18     1     4     -0.12945      19.36800      37.78500     40.04500
   19     1     4     -0.14642      18.14900      37.44700     39.43200
   20     1     4     -0.13593      17.38200      36.37700     39.93300
   21     1     4     -0.03270      16.76500      34.45800     43.01500
   22     1     4     -0.13240      16.57300      33.23700     43.71300
   23     1     4     -0.13837      16.31800      33.20500     45.09800
   24     1     4     -0.13177      16.24900      34.40300     45.82900
   25     1     4     -0.13837      16.43900      35.62800     45.16800
   26     1     4     -0.13240      16.69400      35.64700     43.78300
   27     1     1      0.14019      16.05200      34.38200     46.89200
   28     1     1      0.13440      16.38800      36.55400     45.72000
   29     1     1      0.14470      16.82400      36.60500     43.29900
   30     1     1      0.14470      16.64600      32.29100     43.19700
   31     1     1      0.13440      16.18200      32.25900     45.59900
   32     1     2      0.13854      15.98200      32.72600     41.21000
   33     1     2      0.10084      17.16100      32.29100     39.14400
   34     1     2      0.10084      17.63700      33.94300     38.95400
   35     1     2      0.09447      15.87600      33.60100     37.38300
   36     1     2      0.09447      15.16100      34.57300     38.63900
   37     1     2      0.09186      14.16100      32.49800     39.65900
   38     1     2      0.09186      14.84400      31.53500     38.38000
   39     1     2      0.09115      12.42000      32.10700     38.07800
   40     1     2      0.09115      12.81900      33.80000     38.00400
   41     1     2      0.09234      14.12000      33.42100     35.89600
   42     1     2      0.09234      13.90400      31.70000     36.05700
   43     1     2      0.09090      11.43500      31.96700     35.78700
   44     1     2      0.09090      12.35600      32.46200     34.40000
   45     1     2      0.08656      12.20500      34.84800     35.11200
   46     1     2      0.08656      11.19800      34.41700     36.46200
   47     1     2      0.07753      10.33900      33.60600     33.64700
   48     1     2      0.07753      10.20200      35.25500     34.14300
   49     1     2      0.07895       8.77400      34.68200     36.06000
   50     1     2      0.07895       8.07400      34.25700     34.53600
   51     1     2      0.08175       7.65900      32.52500     36.23600
   52     1     2      0.08175       9.35200      32.32900     36.52600
   53     1     2      0.08690       9.65300      31.43400     34.18300
   54     1     2      0.08690       8.56700      30.48800     35.15200
   55     1     2      0.08071       7.60300      30.75300     32.90600
   56     1     2      0.08071       6.58600      31.61900     34.05100
   57     1     2      0.08071       7.70300      32.50300     33.00900
   58     1     1      0.14757      19.38500      35.42900     42.51000
   59     1     1      0.13226      20.74200      37.30600     41.64200
   60     1     1      0.14368      19.96000      38.60500     39.66600
   61     1     1      0.13226      17.79600      38.01200     38.58100
   62     1     1      0.15757      16.43800      36.15000     39.46500
   63     2     3     -0.17043      11.33800      41.77600     22.46900
   64     2     3     -0.16009      10.17400      42.58900     23.06700
   65     2     3     -0.18168      11.72500      40.54900     23.31500
   66     2     3     -0.17843      12.87000      39.72000     22.71000
   67     2     3     -0.18866      14.22600      40.44900     22.70600
   68     2     3     -0.18448      15.40300      39.54800     22.29700
   69     2     3     -0.16233      15.36000      39.11100     20.82100
   70     2     3     -0.16480      16.59600      38.31000     20.36800
   71     2     3     -0.15082      16.44600      36.77700     20.44600
   72     2     3     -0.16705      16.30500      36.18100     21.86000
   73     2     3     -0.17738      17.48600      36.46200     22.80800
   74     2     3     -0.23917      18.81100      35.84400     22.34000
   75     2     5     -0.14757       8.84400      41.85000     22.99200
   76     2     5     -0.04113       7.76300      42.12800     22.21900
   77     2     4     -0.03469       7.80500      43.18700     21.22500
   78     2     4     -0.12593       6.77100      44.15100     21.16500
   79     2     4     -0.14642       6.77800      45.18200     20.20500
   80     2     4     -0.12945       7.82500      45.26600     19.27200
   81     2     4     -0.14642       8.85800      44.31200     19.30100
   82     2     4     -0.13593       8.83900      43.28500     20.26500
   83     2     4     -0.03270       6.53400      41.36800     22.40300
   84     2     4     -0.13240       6.17000      40.78400     23.64400
   85     2     4     -0.13837       4.97700      40.05000     23.79900
   86     2     4     -0.13177       4.10700      39.88200     22.70800
   87     2     4     -0.13837       4.43600      40.45200     21.46700
   88     2     4     -0.13240       5.63100      41.18300     21.32500
   89     2     1      0.14019       3.19200      39.31900     22.82300
   90     2     1      0.13440       3.77600      40.32900     20.62200
   91     2     1      0.14470       5.86500      41.60100     20.35500
   92     2     1      0.14470       6.79400      40.91100     24.51600
   93     2     1      0.13440       4.72800      39.62300     24.75800
   94     2     2      0.13854       8.77600      41.06100     23.72400
   95     2     2      0.10084      10.37800      42.83100     24.11100
   96     2     2      0.10084      10.10000      43.55300     22.56500
   97     2     2      0.09447      12.19900      42.43800     22.37900
   98     2     2      0.09447      11.09800      41.45500     21.45500
   99     2     2      0.09186      10.85700      39.89800     23.42000
  100     2     2      0.09186      11.98800      40.86000     24.32700
  101     2     2      0.09115      12.96800      38.79800     23.28500
  102     2     2      0.09115      12.60000      39.41300     21.69900
  103     2     2      0.09234      14.19000      41.31800     22.04800
  104     2     2      0.09234      14.42100      40.83800     23.70600
  105     2     2      0.09090      15.44100      38.68300     22.95800
  106     2     2      0.09090      16.33200      40.09300     22.47400
  107     2     2      0.08656      15.29300      40.01100     20.20700
  108     2     2      0.08656      14.45400      38.54200     20.60900
  109     2     2      0.07753      17.49100      38.64300     20.89300
  110     2     2      0.07753      16.78100      38.55500     19.32100
  111     2     2      0.07895      15.58100      36.47600     19.85300
  112     2     2      0.07895      17.30100      36.31600     19.95100
  113     2     2      0.08175      16.17400      35.10200     21.77300
  114     2     2      0.08175      15.38000      36.54000     22.31200
  115     2     2      0.08690      17.61300      37.53500     22.95100
  116     2     2      0.08690      17.24400      36.06300     23.79300
  117     2     2      0.08071      19.59600      36.00400     23.08000
  118     2     2      0.08071      18.71700      34.76800     22.18800
  119     2     2      0.08071      19.15400      36.28700     21.40400
  120     2     1      0.14757       5.96000      44.09900     21.87600
  121     2     1      0.13226       5.97700      45.90800     20.18900
  122     2     1      0.14368       7.83400      46.05600     18.53500
  123     2     1      0.13226       9.66100      44.36200     18.58000
  124     2     1      0.15757       9.62600      42.54800     20.25500
  125     3     3     -0.17043       7.27100      20.17800     33.27600
  126     3     3     -0.16009       7.89500      21.54800     32.94900
  127     3     3     -0.18168       5.73600      20.21800     33.39200
  128     3     3     -0.17843       5.10600      18.84800     33.69400
  129     3     3     -0.18866       5.44100      18.30900     35.09600
  130     3     3     -0.18448       4.64500      17.04900     35.47300
  131     3     3     -0.16233       5.02600      15.80900     34.64100
  132     3     3     -0.16480       4.32400      14.51300     35.09100
  133     3     3     -0.15082       3.02700      14.17400     34.32800
  134     3     3     -0.16705       1.84800      15.14300     34.53300
  135     3     3     -0.17738       1.36500      15.28800     35.98800
  136     3     3     -0.23917       0.80600      13.98800     36.58300
  137     3     5     -0.14757       7.58700      22.00900     31.53000
  138     3     5     -0.04113       8.43000      22.11700     30.47200
  139     3     4     -0.03469       9.81000      21.67000     30.56500
  140     3     4     -0.12593      10.86400      22.51200     30.13800
  141     3     4     -0.14642      12.21000      22.10200     30.20500
  142     3     4     -0.12945      12.53200      20.82600     30.69700
  143     3     4     -0.14642      11.50200      19.96400     31.11400
  144     3     4     -0.13593      10.15900      20.38500     31.04200
  145     3     4     -0.03270       7.95400      22.71200     29.23100
  146     3     4     -0.13240       6.91600      23.67900     29.19100
  147     3     4     -0.13837       6.46900      24.23900     27.97800
  148     3     4     -0.13177       7.05300      23.84500     26.76200
  149     3     4     -0.13837       8.08600      22.89300     26.76800
  150     3     4     -0.13240       8.52500      22.34100     27.98700
  151     3     1      0.14019       6.71200      24.27300     25.83000
  152     3     1      0.13440       8.54200      22.58300     25.84000
  153     3     1      0.14470       9.31300      21.60200     27.96000
  154     3     1      0.14470       6.45800      24.03200     30.10200
  155     3     1      0.13440       5.68000      24.97700     27.98300
  156     3     2      0.13854       6.57100      22.35600     31.42800
  157     3     2      0.10084       7.53300      22.30600     33.64600
  158     3     2      0.10084       8.97200      21.51100     33.10800
  159     3     2      0.09447       7.69500      19.83300     34.21900
  160     3     2      0.09447       7.55900      19.44000     32.52800
  161     3     2      0.09186       5.31600      20.58200     32.45400
  162     3     2      0.09186       5.43600      20.93900     34.15300
  163     3     2      0.09115       4.02300      18.94000     33.60100
  164     3     2      0.09115       5.41000      18.13300     32.92900
  165     3     2      0.09234       6.50800      18.10200     35.18100
  166     3     2      0.09234       5.22600      19.08500     35.83300
  167     3     2      0.09090       3.57900      17.25800     35.39300
  168     3     2      0.09090       4.82300      16.83100     36.52800
  169     3     2      0.08656       6.10400      15.66300     34.73300
  170     3     2      0.08656       4.84100      15.98000     33.58000
  171     3     2      0.07753       4.15600      14.51300     36.16800
  172     3     2      0.07753       5.01600      13.68800     34.91800
  173     3     2      0.07895       3.25000      14.11500     33.26300
  174     3     2      0.07895       2.71100      13.16800     34.60600
  175     3     2      0.08175       1.01100      14.81000     33.91700
  176     3     2      0.08175       2.11400      16.12300     34.13600
  177     3     2      0.08690       2.16900      15.66400     36.62000
  178     3     2      0.08690       0.58600      16.05000     36.02200
  179     3     2      0.08071       0.40800      14.16000     37.58400
  180     3     2      0.08071      -0.00300      13.58600     35.97200
  181     3     2      0.08071       1.57700      13.22100     36.66900
  182     3     1      0.14757      10.63100      23.49600     29.75900
  183     3     1      0.13226      12.99300      22.77100     29.87800
  184     3     1      0.14368      13.56300      20.50800     30.75000
  185     3     1      0.13226      11.73900      18.97600     31.48300
  186     3     1      0.15757       9.38300      19.70000     31.34200
  187     4     3     -0.17043      38.81400      34.98700     14.21400
  188     4     3     -0.16009      39.57400      34.14700     15.25800
  189     4     3     -0.18168      38.87300      36.50100     14.48800
  190     4     3     -0.17843      38.13700      37.34600     13.43500
  191     4     3     -0.18866      36.61000      37.15700     13.44900
  192     4     3     -0.18448      35.86300      38.15200     12.54600
  193     4     3     -0.16233      36.12000      37.93200     11.04300
  194     4     3     -0.16480      35.28300      38.84300     10.12400
  195     4     3     -0.15082      35.98300      40.14400      9.68000
  196     4     3     -0.16705      36.27800      41.16800     10.79200
  197     4     3     -0.17738      35.04100      41.68300     11.55200
  198     4     3     -0.23917      34.05500      42.45900     10.66800
  199     4     5     -0.14757      41.08500      34.32100     15.16400
  200     4     5     -0.04113      42.01600      33.42800     14.74400
  201     4     4     -0.03469      41.62600      32.13900     14.19900
  202     4     4     -0.12593      42.23500      30.95100     14.66900
  203     4     4     -0.14642      41.88600      29.68800     14.15200
  204     4     4     -0.12945      40.91700      29.58700     13.13800
  205     4     4     -0.14642      40.30800      30.75300     12.64400
  206     4     4     -0.13593      40.66600      32.01100     13.16900
  207     4     4     -0.03270      43.43100      33.75500     14.86300
  208     4     4     -0.13240      43.93700      34.62900     15.86000
  209     4     4     -0.13837      45.30900      34.93400     15.95400
  210     4     4     -0.13177      46.22100      34.36800     15.04800
  211     4     4     -0.13837      45.75200      33.49400     14.05200
  212     4     4     -0.13240      44.37800      33.19600     13.96800
  213     4     1      0.14019      47.27400      34.60000     15.11700
  214     4     1      0.13440      46.44300      33.05300     13.35000
  215     4     1      0.14470      44.04500      32.53100     13.18400
  216     4     1      0.14470      43.27700      35.06500     16.59500
  217     4     1      0.13440      45.66100      35.60000     16.72800
  218     4     2      0.13854      41.41000      35.26700     15.56900
  219     4     2      0.10084      39.25600      34.41700     16.26600
  220     4     2      0.10084      39.30800      33.09600     15.15100
  221     4     2      0.09447      37.77400      34.66100     14.21300
  222     4     2      0.09447      39.19400      34.78500     13.21300
  223     4     2      0.09186      39.91600      36.82100     14.50800
  224     4     2      0.09186      38.47600      36.71900     15.48000
  225     4     2      0.09115      38.36400      38.39800     13.62000
  226     4     2      0.09115      38.54000      37.12400     12.44700
  227     4     2      0.09234      36.34900      36.13900     13.15900
  228     4     2      0.09234      36.24700      37.28100     14.47000
  229     4     2      0.09090      36.12000      39.16900     12.83900
  230     4     2      0.09090      34.79200      38.05400     12.73600
  231     4     2      0.08656      35.87400      36.89500     10.81000
  232     4     2      0.08656      37.17900      38.04400     10.80800
  233     4     2      0.07753      34.30800      39.05400     10.56500
  234     4     2      0.07753      35.06100      38.28000      9.21600
  235     4     2      0.07895      36.91900      39.88800      9.18300
  236     4     2      0.07895      35.37700      40.62200      8.91000
  237     4     2      0.08175      36.80000      42.01900     10.35300
  238     4     2      0.08175      36.98900      40.73800     11.49800
  239     4     2      0.08690      34.52400      40.85700     12.04100
  240     4     2      0.08690      35.37600      42.33600     12.35800
  241     4     2      0.08071      33.23900      42.86700     11.26500
  242     4     2      0.08071      34.54400      43.29400     10.16500
  243     4     2      0.08071      33.61000      41.82000      9.90500
  244     4     1      0.14757      42.98000      31.01300     15.44800
  245     4     1      0.13226      42.36400      28.79800     14.53600
  246     4     1      0.14368      40.64700      28.62000     12.73900
  247     4     1      0.13226      39.57000      30.68600     11.85700
  248     4     1      0.15757      40.20600      32.89500     12.75900
  249     5     3     -0.17043       6.28900      19.36200     21.93800
  250     5     3     -0.16009       5.90100      20.84000     21.74900
  251     5     3     -0.18168       5.25500      18.55600     22.74600
  252     5     3     -0.17843       5.62700      17.07400     22.91600
  253     5     3     -0.18866       6.86100      16.84400     23.80700
  254     5     3     -0.18448       7.10300      15.36500     24.14500
  255     5     3     -0.16233       7.52100      14.51500     22.93000
  256     5     3     -0.16480       7.88500      13.05900     23.27800
  257     5     3     -0.15082       6.73300      12.04400     23.12900
  258     5     3     -0.16705       5.55200      12.21300     24.10400
  259     5     3     -0.17738       5.91600      12.10700     25.59700
  260     5     3     -0.23917       6.45800      10.73000     26.00200
  261     5     5     -0.14757       4.71300      21.01900     20.81200
  262     5     5     -0.04113       4.69300      21.54400     19.56100
  263     5     4     -0.03469       5.92200      21.92900     18.89000
  264     5     4     -0.12593       6.03400      23.20000     18.27700
  265     5     4     -0.14642       7.20900      23.59700     17.61000
  266     5     4     -0.12945       8.30400      22.72000     17.53300
  267     5     4     -0.14642       8.21400      21.44600     18.12100
  268     5     4     -0.13593       7.03300      21.06000     18.78500
  269     5     4     -0.03270       3.41700      21.74700     18.88700
  270     5     4     -0.13240       2.20700      21.98600     19.58900
  271     5     4     -0.13837       0.98300      22.17700     18.91700
  272     5     4     -0.13177       0.93600      22.13600     17.51300
  273     5     4     -0.13837       2.11800      21.90700     16.78900
  274     5     4     -0.13240       3.33600      21.71800     17.47200
  275     5     1      0.14019      -0.00000      22.28100     16.99400
  276     5     1      0.13440       2.09500      21.87300     15.71000
  277     5     1      0.14470       4.22700      21.53100     16.88900
  278     5     1      0.14470       2.20000      22.05400     20.66600
  279     5     1      0.13440       0.08200      22.36100     19.48100
  280     5     2      0.13854       3.78000      20.75000     21.28300
  281     5     2      0.10084       5.65400      21.29400     22.71100
  282     5     2      0.10084       6.75800      21.40500     21.38400
  283     5     2      0.09447       7.25100      19.33000     22.45100
  284     5     2      0.09447       6.44700      18.88300     20.97200
  285     5     2      0.09186       4.29000      18.60600     22.24100
  286     5     2      0.09186       5.10400      19.01400     23.72500
  287     5     2      0.09115       4.77300      16.55500     23.35600
  288     5     2      0.09115       5.77600      16.62300     21.93500
  289     5     2      0.09234       7.75300      17.25900     23.33600
  290     5     2      0.09234       6.73100      17.39400     24.74000
  291     5     2      0.09090       6.21300      14.95200     24.62000
  292     5     2      0.09090       7.89100      15.30800     24.89900
  293     5     2      0.08656       8.39500      14.98600     22.47700
  294     5     2      0.08656       6.74800      14.52800     22.16100
  295     5     2      0.07753       8.33800      12.99500     24.26800
  296     5     2      0.07753       8.67300      12.74400     22.59200
  297     5     2      0.07895       6.35300      12.08900     22.10900
  298     5     2      0.07895       7.13800      11.03700     23.23500
  299     5     2      0.08175       4.79800      11.45900     23.87200
  300     5     2      0.08175       5.06100      13.16700     23.91300
  301     5     2      0.08690       6.63500      12.88000     25.86800
  302     5     2      0.08690       5.02400      12.31800     26.18700
  303     5     2      0.08071       6.62800      10.68200     27.07800
  304     5     2      0.08071       5.75900       9.93500     25.74300
  305     5     2      0.08071       7.41000      10.51300     25.51500
  306     5     1      0.14757       5.20100      23.88500     18.32900
  307     5     1      0.13226       7.26700      24.57700     17.15700
  308     5     1      0.14368       9.20700      23.02100     17.02100
  309     5     1      0.13226       9.04600      20.76000     18.05700
  310     5     1      0.15757       6.97400      20.07000     19.20700
  311     6     3     -0.17043      21.66300       7.30800     19.69800
  312     6     3     -0.16009      21.47300       8.71300     20.29800
  313     6     3     -0.18168      22.65300       7.27500     18.51800
  314     6     3     -0.17843      22.86500       5.87000     17.93100
  315     6     3     -0.18866      21.62300       5.30200     17.22100
  316     6     3     -0.18448      21.89900       3.99600     16.45800
  317     6     3     -0.16233      22.21800       2.80200     17.37700
  318     6     3     -0.16480      22.37600       1.46200     16.63200
  319     6     3     -0.15082      23.82500       1.09000     16.25600
  320     6     3     -0.16705      24.51000       1.99900     15.21800
  321     6     3     -0.17738      23.80600       2.07600     13.85000
  322     6     3     -0.23917      23.76000       0.73400     13.10600
  323     6     5     -0.14757      22.70800       9.20500     21.04200
  324     6     5     -0.04113      22.87700       9.38400     22.37700
  325     6     4     -0.03469      21.84400       8.99600     23.32100
  326     6     4     -0.12593      21.42000       9.89800     24.32700
  327     6     4     -0.14642      20.43000       9.54600     25.26400
  328     6     4     -0.12945      19.84200       8.27000     25.22000
  329     6     4     -0.14642      20.25600       7.35000     24.24000
  330     6     4     -0.13593      21.24800       7.71300     23.30900
  331     6     4     -0.03270      24.10400       9.99700     22.87000
  332     6     4     -0.13240      24.86400      10.91800     22.10400
  333     6     4     -0.13837      26.05000      11.49600     22.60000
  334     6     4     -0.13177      26.50900      11.16800     23.88700
  335     6     4     -0.13837      25.77600      10.26300     24.67200
  336     6     4     -0.13240      24.59200       9.69200     24.16600
  337     6     1      0.14019      27.41800      11.60900     24.27000
  338     6     1      0.13440      26.11900      10.00300     25.66200
  339     6     1      0.14470      24.05500       8.98900     24.78800
  340     6     1      0.14470      24.53400      11.22100     21.12200
  341     6     1      0.13440      26.60200      12.19700     21.99300
  342     6     2      0.13854      23.49300       9.51000     20.36800
  343     6     2      0.10084      21.23300       9.43200     19.51200
  344     6     2      0.10084      20.60700       8.72000     20.95800
  345     6     2      0.09447      20.69000       6.95100     19.36100
  346     6     2      0.09447      21.99200       6.60700     20.46500
  347     6     2      0.09186      23.62100       7.65000     18.85200
  348     6     2      0.09186      22.32300       7.95700     17.73300
  349     6     2      0.09115      23.68900       5.91700     17.21700
  350     6     2      0.09115      23.19500       5.19400     18.72100
  351     6     2      0.09234      20.81600       5.14000     17.93600
  352     6     2      0.09234      21.25200       6.04300     16.51200
  353     6     2      0.09090      22.70200       4.16000     15.74100
  354     6     2      0.09090      21.01800       3.75300     15.86100
  355     6     2      0.08656      21.39900       2.70100     18.09100
  356     6     2      0.08656      23.10800       2.99800     17.97600
  357     6     2      0.07753      21.72200       1.42000     15.76100
  358     6     2      0.07753      22.01000       0.67400     17.29200
  359     6     2      0.07895      24.43200       1.07500     17.16200
  360     6     2      0.07895      23.83900       0.06300     15.89100
  361     6     2      0.08175      25.53200       1.64900     15.06800
  362     6     2      0.08175      24.61600       3.00200     15.63200
  363     6     2      0.08690      22.79500       2.46700     13.96400
  364     6     2      0.08690      24.33200       2.80100     13.22900
  365     6     2      0.08071      23.32200       0.85600     12.11500
  366     6     2      0.08071      24.75900       0.31600     12.97600
  367     6     2      0.08071      23.15400      -0.00100     13.63900
  368     6     1      0.14757      21.86200      10.88200     24.37200
  369     6     1      0.13226      20.12200      10.25900     26.01600
  370     6     1      0.14368      19.08200       7.99600     25.93800
  371     6     1      0.13226      19.81800       6.36300     24.20600
  372     6     1      0.15757      21.57000       6.98600     22.58200
  373     7     3     -0.17043      23.61800      11.99600     32.03700
  374     7     3     -0.16009      24.18900      11.01700     30.99400
  375     7     3     -0.18168      24.58400      13.14200     32.39300
  376     7     3     -0.17843      24.00900      14.13600     33.41600
  377     7     3     -0.18866      23.81700      13.53600     34.82000
  378     7     3     -0.18448      23.44400      14.58000     35.88500
  379     7     3     -0.16233      22.04200      15.18700     35.68800
  380     7     3     -0.16480      21.60900      16.14400     36.81600
  381     7     3     -0.15082      21.89100      17.63600     36.55100
  382     7     3     -0.16705      23.37600      18.04200     36.47900
  383     7     3     -0.17738      24.19400      17.75500     37.75200
  384     7     3     -0.23917      23.71600      18.54000     38.98100
  385     7     5     -0.14757      24.30200      11.63900     29.60700
  386     7     5     -0.04113      23.57800      11.36200     28.49300
  387     7     4     -0.03469      22.45800      10.43800     28.53800
  388     7     4     -0.12593      22.34800       9.40000     27.58200
  389     7     4     -0.14642      21.26800       8.49700     27.59300