LAMMPS data file of the system for full atom style

    4980 atoms
    5229 bonds
    8964 angles
   13695 dihedrals
    1992 impropers

    4 atom types
    5 bond types
    9 angle types
    6 dihedral types
    1 improper types

    0.000000    50.000000 xlo xhi
    0.000000    50.000000 ylo yhi
    0.000000    50.000000 zlo zhi

 Masses 

    1       1.0080
    2       1.0080
    3      12.0110
    4      12.0110

 Pair Coeffs 

    1       0.0300       2.4200
    2       0.0300       2.5000
    3       0.0660       3.5000
    4       0.0700       3.5500

 Bond Coeffs 

    1     268.0000        1.5290
    2     317.0000        1.5100
    3     340.0000        1.0900
    4     367.0000        1.0800
    5     469.0000        1.4000

 Angle Coeffs 

    1      33.0000      107.8000
    2      35.0000      109.5000
    3      35.0000      120.0000
    4      37.5000      110.7000
    5      40.0000      109.5000
    6      58.3500      112.7000
    7      63.0000      114.0000
    8      63.0000      120.0000
    9      70.0000      120.0000

 Dihedral Coeffs 

    1      -0.2500        0.0000       0.0000        0.0000
    2       0.0000        0.0000       0.0000        0.0000
    3       0.0000        0.0000       0.3000        0.0000
    4       0.0000        0.0000       0.4620        0.0000
    5       0.0000        7.2500       0.0000        0.0000
    6       0.8500       -0.2000       0.2000        0.0000

 Improper Coeffs 

    1       2.5000     -1     2

 Atoms 

    1     1     3     -0.18250      13.90600      12.11800     31.30400
    2     1     3     -0.17716      14.02700      10.59700     31.11700
    3     1     3     -0.17043      13.16400      12.79600     30.14000
    4     1     3     -0.02420      12.97100      14.31400     30.34100
    5     1     4     -0.06936      12.03600      14.99700     29.34300
    6     1     4     -0.13007      11.36100      16.17500     29.73000
    7     1     4     -0.13456      10.49200      16.82900     28.83400
    8     1     4     -0.13596      10.29300      16.31100     27.54100
    9     1     4     -0.13456      10.96700      15.14000     27.14400
   10     1     4     -0.13007      11.83600      14.48700     28.03900
   11     1     4     -0.06631      14.28500      15.08500     30.40100
   12     1     4     -0.12879      15.08900      15.22500     29.24700
   13     1     4     -0.13643      16.30900      15.92400     29.31000
   14     1     4     -0.14118      16.73800      16.48700     30.52700
   15     1     4     -0.13643      15.94300      16.35100     31.68200
   16     1     4     -0.12879      14.72200      15.65100     31.61900
   17     1     3     -0.16682      14.89700       9.90100     32.18400
   18     1     3     -0.03887      14.35600       9.98400     33.63000
   19     1     4     -0.06699      12.94600       9.43900     33.85400
   20     1     4     -0.13173      12.47000       8.30500     33.15800
   21     1     4     -0.13387      11.16400       7.82600     33.38000
   22     1     4     -0.13978      10.32300       8.47500     34.30500
   23     1     4     -0.13387      10.79200       9.60000     35.00800
   24     1     4     -0.13173      12.09700      10.07800     34.78400
   25     1     4     -0.05802      15.31000       9.36400     34.64500
   26     1     4     -0.12630      15.52300       7.96800     34.67900
   27     1     4     -0.13665      16.41500       7.40400     35.61000
   28     1     4     -0.14044      17.10500       8.23200     36.51600
   29     1     4     -0.13665      16.90200       9.62400     36.48700
   30     1     4     -0.12630      16.00800      10.18900     35.55500
   31     1     1      0.13375      17.78900       7.79900     37.23200
   32     1     1      0.13761      17.43100      10.26200     37.18100
   33     1     1      0.13334      15.86500      11.25900     35.54300
   34     1     1      0.13334      14.99600       7.32500     33.98900
   35     1     1      0.13761      16.56800       6.33400     35.63100
   36     1     2      0.11316      14.30600      11.04400     33.87300
   37     1     1      0.13283      13.10100       7.79400     32.44700
   38     1     1      0.13394      10.80900       6.96000     32.84300
   39     1     1      0.14193       9.32200       8.10600     34.47700
   40     1     1      0.13394      10.15000      10.09700     35.72200
   41     1     1      0.13283      12.44800      10.93800     35.33500
   42     1     2      0.09544      15.89700      10.33400     32.16100
   43     1     2      0.09544      15.03700       8.85700     31.90400
   44     1     2      0.09314      14.46400      10.39400     30.13700
   45     1     2      0.09314      13.03200      10.14900     31.09600
   46     1     2      0.09810      14.90200      12.55500     31.40300
   47     1     2      0.09810      13.37900      12.33300     32.23400
   48     1     2      0.09775      12.18400      12.33000     30.02500
   49     1     2      0.09775      13.70800      12.60900     29.21300
   50     1     2      0.11773      12.47900      14.43100     31.30800
   51     1     1      0.13193      11.51300      16.58700     30.71600
   52     1     1      0.13391       9.98100      17.73000     29.13900
   53     1     1      0.13980       9.62800      16.81200     26.85200
   54     1     1      0.13391      10.82000      14.74200     26.15000
   55     1     1      0.13193      12.34500      13.59400     27.71000
   56     1     1      0.13167      14.76300      14.79800     28.31000
   57     1     1      0.13473      16.91500      16.02900     28.42200
   58     1     1      0.13967      17.67400      17.02400     30.57500
   59     1     1      0.13473      16.27000      16.78200     32.61600
   60     1     1      0.13167      14.12200      15.55100     32.51200
   61     2     3     -0.18250      38.82500      42.99200     33.38500
   62     2     3     -0.17716      39.15300      44.29000     32.62900
   63     2     3     -0.17043      40.05300      42.08000     33.54800
   64     2     3     -0.02420      39.76000      40.80200     34.36300
   65     2     4     -0.06936      40.98600      39.98300     34.76400
   66     2     4     -0.13007      40.92200      39.17000     35.91700
   67     2     4     -0.13456      42.03400      38.40100     36.31400
   68     2     4     -0.13596      43.22100      38.43600     35.55700
   69     2     4     -0.13456      43.29100      39.23800     34.40200
   70     2     4     -0.13007      42.17900      40.00600     34.00500
   71     2     4     -0.06631      38.74100      39.88400     33.69800
   72     2     4     -0.12879      39.06700      39.18900     32.51200
   73     2     4     -0.13643      38.11800      38.35400     31.89200
   74     2     4     -0.14118      36.83400      38.20900     32.45100
   75     2     4     -0.13643      36.50100      38.89900     33.63200
   76     2     4     -0.12879      37.45100      39.73500     34.25200
   77     2     3     -0.16682      37.91900      45.16000     32.31100
   78     2     3     -0.03887      37.16700      45.71100     33.54400
   79     2     4     -0.06699      37.99600      46.54500     34.52200
   80     2     4     -0.13173      39.01900      47.41100     34.07500
   81     2     4     -0.13387      39.77000      48.16400     34.99800
   82     2     4     -0.13978      39.50200      48.06300     36.37600
   83     2     4     -0.13387      38.48000      47.20800     36.82900
   84     2     4     -0.13173      37.73000      46.45500     35.90600
   85     2     4     -0.05802      35.90600      46.47700     33.16200
   86     2     4     -0.12630      35.98800      47.72500     32.50700
   87     2     4     -0.13665      34.81900      48.42100     32.14600
   88     2     4     -0.14044      33.55400      47.87200     32.43500
   89     2     4     -0.13665      33.46300      46.62800     33.08500
   90     2     4     -0.12630      34.63400      45.93200     33.44700
   91     2     1      0.13375      32.65700      48.40700     32.15900
   92     2     1      0.13761      32.49400      46.20400     33.30700
   93     2     1      0.13334      34.54800      44.97600     33.94200
   94     2     1      0.13334      36.95300      48.15500     32.28300
   95     2     1      0.13761      34.89300      49.37700     31.64800
   96     2     2      0.11316      36.83200      44.84100     34.10700
   97     2     1      0.13283      39.23800      47.50200     33.02200
   98     2     1      0.13394      40.55200      48.82200     34.64700
   99     2     1      0.14193      40.07700      48.64200     37.08400
  100     2     1      0.13394      38.26700      47.13200     37.88600
  101     2     1      0.13283      36.94300      45.80800     36.26500
  102     2     2      0.09544      37.22200      44.57500     31.71000
  103     2     2      0.09544      38.22200      45.98500     31.66700
  104     2     2      0.09314      39.64300      44.03800     31.68700
  105     2     2      0.09314      39.88300      44.87000     33.19700
  106     2     2      0.09810      38.03800      42.45000     32.85500
  107     2     2      0.09810      38.42800      43.23100     34.37200
  108     2     2      0.09775      40.84600      42.64000     34.04500
  109     2     2      0.09775      40.43300      41.81300     32.56000
  110     2     2      0.11773      39.33000      41.13900     35.30700
  111     2     1      0.13193      40.01400      39.12800     36.49900
  112     2     1      0.13391      41.97500      37.78200     37.19600
  113     2     1      0.13980      44.07400      37.84700     35.86000
  114     2     1      0.13391      44.19900      39.26400     33.81700
  115     2     1      0.13193      42.25700      40.60900     33.11400
  116     2     1      0.13167      40.05200      39.29400     32.08000
  117     2     1      0.13473      38.37900      37.82400     30.98700
  118     2     1      0.13967      36.10700      37.56800     31.97500
  119     2     1      0.13473      35.51700      38.78900     34.06200
  120     2     1      0.13167      37.18200      40.26200     35.15700
  121     3     3     -0.18250      12.93800      42.83700      6.82700
  122     3     3     -0.17716      14.39200      42.78800      6.33000
  123     3     3     -0.17043      12.05000      43.74400      5.95800
  124     3     3     -0.02420      10.57100      43.75400      6.40000
  125     3     4     -0.06936       9.60200      44.43900      5.43700
  126     3     4     -0.13007       8.24700      44.04200      5.42900
  127     3     4     -0.13456       7.32700      44.65400      4.55400
  128     3     4     -0.13596       7.75500      45.67200      3.68200
  129     3     4     -0.13456       9.10300      46.07800      3.68800
  130     3     4     -0.13007      10.02200      45.46700      4.56200
  131     3     4     -0.06631      10.36500      44.31700      7.80200
  132     3     4     -0.12879      10.56900      45.69100      8.06000
  133     3     4     -0.13643      10.39200      46.20500      9.35900
  134     3     4     -0.14118      10.01300      45.34900     10.41000
  135     3     4     -0.13643       9.81000      43.97800     10.16100
  136     3     4     -0.12879       9.98600      43.46400      8.86100
  137     3     3     -0.16682      15.34700      42.01300      7.26000
  138     3     3     -0.03887      15.03400      40.50700      7.41900
  139     3     4     -0.06699      14.98800      39.68800      6.13000
  140     3     4     -0.13173      15.86600      39.95200      5.05300
  141     3     4     -0.13387      15.80000      39.18400      3.87400
  142     3     4     -0.13978      14.85900      38.14200      3.76200
  143     3     4     -0.13387      13.98700      37.86900      4.83200
  144     3     4     -0.13173      14.05200      38.63700      6.01000
  145     3     4     -0.05802      15.95200      39.82400      8.42600
  146     3     4     -0.12630      17.32100      39.62900      8.14000
  147     3     4     -0.13665      18.16600      39.00900      9.07900
  148     3     4     -0.14044      17.64900      38.58000     10.31700
  149     3     4     -0.13665      16.28700      38.77300     10.61200
  150     3     4     -0.12630      15.44100      39.39400      9.67100
  151     3     1      0.13375      18.29800      38.10200     11.03800
  152     3     1      0.13761      15.88900      38.44600     11.56200
  153     3     1      0.13334      14.39900      39.53800      9.91300
  154     3     1      0.13334      17.72600      39.95200      7.19200
  155     3     1      0.13761      19.21100      38.86000      8.84900
  156     3     2      0.11316      14.03000      40.45100      7.84100
  157     3     1      0.13283      16.59400      40.74500      5.12200
  158     3     1      0.13394      16.47300      39.39300      3.05700
  159     3     1      0.14193      14.81000      37.55200      2.85800
  160     3     1      0.13394      13.26700      37.06600      4.75100
  161     3     1      0.13283      13.38300      38.41300      6.82700
  162     3     2      0.09544      15.33300      42.47800      8.24600
  163     3     2      0.09544      16.37000      42.13800      6.90500
  164     3     2      0.09314      14.76800      43.80800      6.23100
  165     3     2      0.09314      14.42300      42.36200      5.32500
  166     3     2      0.09810      12.91700      43.18900      7.86000
  167     3     2      0.09810      12.51800      41.83100      6.83300
  168     3     2      0.09775      12.10600      43.40700      4.92200
  169     3     2      0.09775      12.45100      44.75900      5.97700
  170     3     2      0.11773      10.25500      42.71000      6.41700
  171     3     1      0.13193       7.90600      43.26900      6.10100
  172     3     1      0.13391       6.29300      44.34300      4.55600
  173     3     1      0.13980       7.05100      46.14200      3.01100
  174     3     1      0.13391       9.43300      46.86200      3.02100
  175     3     1      0.13193      11.04800      45.80000      4.55200
  176     3     1      0.13167      10.85700      46.35300      7.25600
  177     3     1      0.13473      10.54700      47.25800      9.54600
  178     3     1      0.13967       9.87700      45.74400     11.40700
  179     3     1      0.13473       9.51800      43.32000     10.96600
  180     3     1      0.13167       9.82900      42.41000      8.68300
  181     4     3     -0.18250      21.38400      11.18000     39.21900
  182     4     3     -0.17716      22.48700      12.02700     38.56300
  183     4     3     -0.17043      21.58000      11.03400     40.73700
  184     4     3     -0.02420      20.44500      10.24500     41.42500
  185     4     4     -0.06936      20.45700      10.27400     42.95300
  186     4     4     -0.13007      19.24300      10.09800     43.65300
  187     4     4     -0.13456      19.21800      10.11900     45.06100
  188     4     4     -0.13596      20.41100      10.31400     45.78300
  189     4     4     -0.13456      21.62700      10.48300     45.09400
  190     4     4     -0.13007      21.65100      10.46200     43.68700
  191     4     4     -0.06631      20.34700       8.79800     40.95400
  192     4     4     -0.12879      21.35400       7.86400     41.28900
  193     4     4     -0.13643      21.26800       6.53300     40.83900
  194     4     4     -0.14118      20.17600       6.12400     40.05000
  195     4     4     -0.13643      19.17000       7.04900     39.71100
  196     4     4     -0.12879      19.25600       8.38100     40.16100
  197     4     3     -0.16682      22.41300      12.06900     37.02300
  198     4     3     -0.03887      21.14200      12.73100     36.44300
  199     4     4     -0.06699      20.86400      14.16700     36.89100
  200     4     4     -0.13173      21.91200      15.09100     37.10500
  201     4     4     -0.13387      21.62900      16.40600     37.52200
  202     4     4     -0.13978      20.29600      16.81100     37.72500
  203     4     4     -0.13387      19.24700      15.89900     37.50700
  204     4     4     -0.13173      19.53000      14.58400     37.09100
  205     4     4     -0.05802      21.08500      12.65200     34.92200
  206     4     4     -0.12630      21.98100      13.39900     34.12500
  207     4     4     -0.13665      21.93200      13.31100     32.72100
  208     4     4     -0.14044      20.98700      12.47200     32.10000
  209     4     4     -0.13665      20.09300      11.72100     32.88600
  210     4     4     -0.12630      20.14200      11.81000     34.29200
  211     4     1      0.13375      20.94800      12.40500     31.02200
  212     4     1      0.13761      19.36800      11.07500     32.41200
  213     4     1      0.13334      19.45200      11.22500     34.88200
  214     4     1      0.13334      22.70700      14.04800     34.59200
  215     4     1      0.13761      22.61800      13.89000     32.12000
  216     4     2      0.11316      20.30100      12.14100     36.80600
  217     4     1      0.13283      22.94000      14.79900     36.95400
  218     4     1      0.13394      22.43600      17.10500     37.68500
  219     4     1      0.14193      20.07900      17.82000     38.04300
  220     4     1      0.13394      18.22200      16.20800     37.65600
  221     4     1      0.13283      18.71700      13.89500     36.92000
  222     4     2      0.09544      22.48200      11.05200     36.63800
  223     4     2      0.09544      23.29700      12.57600     36.63700
  224     4     2      0.09314      23.46000      11.62100     38.84500
  225     4     2      0.09314      22.46000      13.04000     38.96600
  226     4     2      0.09810      21.36100      10.19000     38.75900
  227     4     2      0.09810      20.41000      11.63400     39.02900
  228     4     2      0.09775      21.63700      12.02800     41.18400
  229     4     2      0.09775      22.53900      10.55100     40.92800
  230     4     2      0.11773      19.51700      10.74400     41.14400
  231     4     1      0.13193      18.32400       9.93900     43.10900
  232     4     1      0.13391      18.28500       9.98300     45.58600
  233     4     1      0.13980      20.39400      10.33000     46.86400
  234     4     1      0.13391      22.54400      10.62900     45.64700
  235     4     1      0.13193      22.59600      10.58800     43.18200
  236     4     1      0.13167      22.19200       8.17200     41.89700
  237     4     1      0.13473      22.04000       5.82500     41.10400
  238     4     1      0.13967      20.11000       5.10300     39.70500
  239     4     1      0.13473      18.33100       6.73800     39.10500
  240     4     1      0.13167      18.47900       9.08300     39.89200
  241     5     3     -0.18250      17.75800       9.09300     19.07300
  242     5     3     -0.17716      16.59800       8.53100     18.23500
  243     5     3     -0.17043      17.42100       9.16000     20.57300
  244     5     3     -0.02420      18.59800       9.65800     21.44000
  245     5     4     -0.06936      18.40700       9.51600     22.94900
  246     5     4     -0.13007      19.54500       9.39800     23.77700
  247     5     4     -0.13456      19.40400       9.26700     25.17300
  248     5     4     -0.13596      18.12200       9.25600     25.75400
  249     5     4     -0.13456      16.98300       9.38100     24.93700
  250     5     4     -0.13007      17.12300       9.51300     23.54200
  251     5     4     -0.06631      19.01700      11.08900     21.12100
  252     5     4     -0.12879      18.17200      12.17300     21.44400
  253     5     4     -0.13643      18.55600      13.49200     21.13400
  254     5     4     -0.14118      19.78800      13.73700     20.49700
  255     5     4     -0.13643      20.63500      12.66100     20.17100
  256     5     4     -0.12879      20.25100      11.34100     20.48100
  257     5     3     -0.16682      16.83800       8.59000     16.71300
  258     5     3     -0.03887      18.02000       7.73700     16.19900
  259     5     4     -0.06699      17.97100       6.24600     16.53300
  260     5     4     -0.13173      16.75200       5.53200     16.55500
  261     5     4     -0.13387      16.73400       4.15900     16.86900
  262     5     4     -0.13978      17.93700       3.48600     17.16100
  263     5     4     -0.13387      19.15600       4.18900     17.13500
  264     5     4     -0.13173      19.17200       5.56100     16.82100
  265     5     4     -0.05802      18.26300       7.91800     14.70500
  266     5     4     -0.12630      17.34000       7.42200     13.75700
  267     5     4     -0.13665      17.56500       7.60400     12.38000
  268     5     4     -0.14044      18.71400       8.28600     11.93600
  269     5     4     -0.13665      19.63700       8.78600     12.87400
  270     5     4     -0.12630      19.41300       8.60300     14.25300
  271     5     1      0.13375      18.88700       8.42500     10.87800
  272     5     1      0.13761      20.51900       9.31100     12.53600
  273     5     1      0.13334      20.12800       8.99500     14.96000
  274     5     1      0.13334      16.45700       6.89600     14.08700
  275     5     1      0.13761      16.85400       7.21800     11.66200
  276     5     2      0.11316      18.90900       8.12200     16.69700
  277     5     1      0.13283      15.82100       6.03000     16.33200
  278     5     1      0.13394      15.79800       3.62100     16.88500
  279     5     1      0.14193      17.92300       2.43300     17.40100
  280     5     1      0.13394      20.08100       3.67500     17.35300
  281     5     1      0.13283      20.11400       6.08800     16.79600
  282     5     2      0.09544      17.00400       9.62800     16.42200
  283     5     2      0.09544      15.92400       8.29700     16.19700
  284     5     2      0.09314      15.69200       9.09700     18.45900
  285     5     2      0.09314      16.38800       7.50400     18.54100
  286     5     2      0.09810      18.01800      10.09100     18.71400
  287     5     2      0.09810      18.64500       8.47300     18.93600
  288     5     2      0.09775      17.12900       8.16600     20.91400
  289     5     2      0.09775      16.55400       9.80600     20.71500
  290     5     2      0.11773      19.44200       9.00900     21.20400
  291     5     1      0.13193      20.53300       9.41400     23.34300
  292     5     1      0.13391      20.28100       9.17800     25.79700
  293     5     1      0.13980      18.01300       9.15700     26.82400
  294     5     1      0.13391      15.99700       9.37700     25.38100
  295     5     1      0.13193      16.23500       9.61200     22.93800
  296     5     1      0.13167      17.22700      11.99200     21.93600
  297     5     1      0.13473      17.90400      14.31500     21.38800
  298     5     1      0.13967      20.08200      14.74800     20.26000
  299     5     1      0.13473      21.58000      12.84600     19.68200
  300     5     1      0.13167      20.90800      10.52300     20.22300
  301     6     3     -0.18250      33.04600      41.10100     34.16600
  302     6     3     -0.17716      34.16700      41.31600     35.19500
  303     6     3     -0.17043      33.40400      41.66400     32.77900
  304     6     3     -0.02420      32.31900      41.39800     31.71400
  305     6     4     -0.06936      32.72000      41.71500     30.27400
  306     6     4     -0.13007      32.08700      41.02600     29.21700
  307     6     4     -0.13456      32.43300      41.29500     27.87800
  308     6     4     -0.13596      33.41500      42.26000     27.58400
  309     6     4     -0.13456      34.04700      42.95600     28.63100
  310     6     4     -0.13007      33.70100      42.68800     29.97000
  311     6     4     -0.06631      30.99100      42.08000     32.02400
  312     6     4     -0.12879      30.87300      43.48600     31.95700
  313     6     4     -0.13643      29.64900      44.11300     32.25900
  314     6     4     -0.14118      28.53400      43.33900     32.63300
  315     6     4     -0.13643      28.64400      41.93700     32.70400
  316     6     4     -0.12879      29.86900      41.30900     32.40100
  317     6     3     -0.16682      33.78700      40.90500     36.63200
  318     6     3     -0.03887      33.48300      39.40200     36.82800
  319     6     4     -0.06699      34.59200      38.43100     36.42000
  320     6     4     -0.13173      35.95700      38.74200     36.61500
  321     6     4     -0.13387      36.95900      37.83200     36.22600
  322     6     4     -0.13978      36.60500      36.60000     35.64300
  323     6     4     -0.13387      35.24800      36.27900     35.45300
  324     6     4     -0.13173      34.24700      37.19000     35.84100
  325     6     4     -0.05802      33.01900      39.08100     38.24400
  326     6     4     -0.12630      33.91400      39.16300     39.33400
  327     6     4     -0.13665      33.47500      38.87800     40.64100
  328     6     4     -0.14044      32.13500      38.51000     40.87000
  329     6     4     -0.13665      31.23700      38.42800     39.79100
  330     6     4     -0.12630      31.67600      38.71300     38.48200
  331     6     1      0.13375      31.79900      38.28900     41.87400
  332     6     1      0.13761      30.20800      38.14700     39.96400
  333     6     1      0.13334      30.97400      38.65000     37.66400
  334     6     1      0.13334      34.94400      39.44200     39.16800
  335     6     1      0.13761      34.16800      38.93900     41.46800
  336     6     2      0.11316      32.63900      39.17700     36.17700
  337     6     1      0.13283      36.24700      39.68100     37.06100
  338     6     1      0.13394      37.99900      38.07800     36.37700
  339     6     1      0.14193      37.37300      35.90000     35.34700
  340     6     1      0.13394      34.97300      35.33200     35.01100
  341     6     1      0.13283      33.20900      36.93100     35.69700
  342     6     2      0.09544      32.91500      41.48000     36.94400
  343     6     2      0.09544      34.58200      41.20900     37.31200
  344     6     2      0.09314      34.44200      42.37300     35.20500
  345     6     2      0.09314      35.06400      40.78100     34.87800
  346     6     2      0.09810      32.12700      41.57300     34.52200
  347     6     2      0.09810      32.83200      40.03600     34.07100
  348     6     2      0.09775      34.34100      41.21500     32.44700
  349     6     2      0.09775      33.58700      42.73600     32.86600
  350     6     2      0.11773      32.14500      40.32100     31.72300
  351     6     1      0.13193      31.32500      40.29100     29.43000
  352     6     1      0.13391      31.94100      40.76300     27.07700
  353     6     1      0.13980      33.68100      42.46700     26.55800
  354     6     1      0.13391      34.79800      43.70000     28.40800
  355     6     1      0.13193      34.19600      43.23900     30.75400
  356     6     1      0.13167      31.72500      44.08400     31.66800
  357     6     1      0.13473      29.56700      45.18800     32.20200
  358     6     1      0.13967      27.59500      43.82000     32.86400
  359     6     1      0.13473      27.79000      41.34100     32.99000
  360     6     1      0.13167      29.94200      40.23300     32.46100
  361     7     3     -0.18250      12.79300      10.26500     17.73100
  362     7     3     -0.17716      13.99600      11.18700     17.99000
  363     7     3     -0.17043      13.13000       8.78100     17.95800
  364     7     3     -0.02420      11.91800       7.84500     17.77000
  365     7     4     -0.06936      12.12900       6.39900     18.21500
  366     7     4     -0.13007      11.01100       5.63200     18.61400
  367     7     4     -0.13456      11.17000       4.29600     19.03000
  368     7     4     -0.13596      12.45100       3.71200     19.04800
  369     7     4     -0.13456      13.57000       4.46600     18.64600
  370     7     4     -0.13007      13.41100       5.80200     18.23000
  371     7     4     -0.06631      11.36600       7.85400     16.34800
  372     7     4     -0.12879      12.10900       7.29200     15.28600
  373     7     4     -0.13643      11.60200       7.31600     13.97200
  374     7     4     -0.14118      10.35000       7.90400     13.71000
  375     7     4     -0.13643       9.60500       8.46700     14.76300
  376     7     4     -0.12879      10.11100       8.44300     16.07800
  377     7     3     -0.16682      13.74400      12.66400     17.62500
  378     7     3     -0.03887      12.64300      13.36700     18.45200
  379     7     4     -0.06699      12.83100      13.36200     19.96900
  380     7     4     -0.13173      14.11200      13.47700     20.55700
  381     7     4     -0.13387      14.25800      13.46500     21.95700
  382     7     4     -0.13978      13.12500      13.34300     22.78400
  383     7     4     -0.13387      11.84600      13.23500     22.20700
  384     7     4     -0.13173      11.70000      13.24600     20.80700
  385     7     4     -0.05802      12.37600      14.79100     17.97600
  386     7     4     -0.12630      13.33600      15.80900     18.16800
  387     7     4     -0.13665      13.08800      17.11800     17.71400
  388     7     4     -0.14044      11.87900      17.42100     17.06100
  389     7     4     -0.13665      10.91800      16.41200     16.86200
  390     7     4     -0.12630      11.16600      15.10100     17.31700
  391     7     1      0.13375      11.68800      18.42700     16.71300
  392     7     1      0.13761       9.98900      16.64200     16.36000
  393     7     1      0.13334      10.42100      14.33700     17.15400
  394     7     1      0.13334      14.26600      15.58700     18.67100
  395     7     1      0.13761      13.82700      17.89200     17.87000