LAMMPS data file of the system for full atom style

    4992 atoms
    4992 bonds
    9984 angles
   14976 dihedrals

    2 atom types
    2 bond types
    3 angle types
    2 dihedral types

    0.000000    50.000000 xlo xhi
    0.000000    50.000000 ylo yhi
    0.000000    50.000000 zlo zhi

 Masses 

    1       1.0080
    2      12.0110

 Pair Coeffs 

    1       0.0300       2.5000
    2       0.0660       3.5000

 Bond Coeffs 

    1     268.0000        1.5290
    2     340.0000        1.0900

 Angle Coeffs 

    1      33.0000      107.8000
    2      37.5000      110.7000
    3      58.3500      112.7000

 Dihedral Coeffs 

    1       0.0000        0.0000       0.3000        0.0000
    2       0.8500       -0.2000       0.2000        0.0000

 Atoms 

    1     1     2     -0.17365      14.23700       5.00400     18.84700
    2     1     2     -0.12803      14.68600       6.43900     19.20800
    3     1     2     -0.17513      15.06200       3.90900     19.55400
    4     1     2     -0.17599      13.55600       7.47700     19.05300
    5     1     2     -0.16169      12.46700       7.42200     20.14500
    6     1     2     -0.17065      11.24200       8.30500     19.84000
    7     1     2     -0.17514      10.06600       7.55800     19.18200
    8     1     2     -0.19006      10.37100       7.00500     17.78000
    9     1     2     -0.19637       9.13200       6.45100     17.05600
   10     1     2     -0.19419       8.55000       5.18900     17.71800
   11     1     2     -0.17878       7.44200       4.51700     16.89100
   12     1     2     -0.18820       6.16200       5.35900     16.78000
   13     1     2     -0.24674       5.03900       4.62000     16.04100
   14     1     2     -0.11352      16.53400       4.32300     19.73900
   15     1     2     -0.17874      16.63200       5.59000     20.62200
   16     1     2     -0.19251      15.37200       6.48000     20.58400
   17     1     2     -0.16067      17.38600       3.14700     20.26600
   18     1     2     -0.17214      18.91100       3.32700     20.12900
   19     1     2     -0.18356      19.58300       4.03300     21.32100
   20     1     2     -0.19046      21.10300       4.19800     21.15900
   21     1     2     -0.18191      21.88100       2.87100     21.21000
   22     1     2     -0.18778      23.41000       3.05400     21.23400
   23     1     2     -0.17894      24.00400       3.76700     20.00100
   24     1     2     -0.17811      23.69100       3.10700     18.64600
   25     1     2     -0.18570      24.24400       1.67800     18.51100
   26     1     2     -0.24374      24.00500       1.09100     17.11500
   27     1     1      0.08611      16.90500       4.57800     18.74400
   28     1     1      0.09284      16.82200       5.31900     21.66200
   29     1     1      0.09284      17.49600       6.17300     20.29900
   30     1     1      0.10086      14.67300       6.13600     21.34700
   31     1     1      0.10086      15.63700       7.50300     20.85600
   32     1     1      0.09834      15.45100       6.71600     18.47900
   33     1     1      0.09148      13.18400       4.84600     19.08200
   34     1     1      0.09148      14.31200       4.87700     17.76600
   35     1     1      0.09413      14.98400       2.98100     18.98600
   36     1     1      0.09413      14.62600       3.70000     20.53200
   37     1     1      0.08792      13.11200       7.36200     18.06500
   38     1     1      0.08792      13.99200       8.47800     19.05300
   39     1     1      0.09013      12.90900       7.76000     21.08200
   40     1     1      0.09013      12.14400       6.39700     20.33200
   41     1     1      0.08091      10.87800       8.71500     20.78400
   42     1     1      0.08091      11.53100       9.17000     19.24200
   43     1     1      0.08514       9.22100       8.24300     19.11600
   44     1     1      0.08514       9.74200       6.75000     19.83900
   45     1     1      0.09716      10.80100       7.80100     17.17000
   46     1     1      0.09716      11.13100       6.22600     17.84200
   47     1     1      0.09299       9.41100       6.21500     16.02800
   48     1     1      0.09299       8.37300       7.23000     16.98900
   49     1     1      0.09453       8.16900       5.42500     18.71300
   50     1     1      0.09453       9.35300       4.46700     17.87000
   51     1     1      0.09448       7.81900       4.27400     15.89700
   52     1     1      0.09448       7.19700       3.56100     17.35800
   53     1     1      0.09408       5.81400       5.63700     17.77600
   54     1     1      0.09408       6.37200       6.29300     16.25800
   55     1     1      0.08403       4.76400       3.69800     16.55400
   56     1     1      0.08403       4.14400       5.23900     15.97300
   57     1     1      0.08403       5.33800       4.36000     15.02400
   58     1     1      0.08566      17.11600       2.90100     21.29400
   59     1     1      0.08566      17.12100       2.26200     19.68400
   60     1     1      0.08602      19.34800       2.33300     20.02900
   61     1     1      0.08602      19.14500       3.84500     19.19800
   62     1     1      0.09358      19.36600       3.49500     22.24500
   63     1     1      0.09358      19.15400       5.02400     21.44900
   64     1     1      0.08951      21.46600       4.85000     21.95500
   65     1     1      0.08951      21.31100       4.72300     20.22600
   66     1     1      0.09827      21.58800       2.32100     22.10500
   67     1     1      0.09827      21.60300       2.23400     20.37100
   68     1     1      0.08969      23.68800       3.61100     22.12900
   69     1     1      0.08969      23.88300       2.07700     21.34800
   70     1     1      0.08779      25.08600       3.83500     20.12200
   71     1     1      0.08779      23.65500       4.80000     19.97900
   72     1     1      0.08732      22.61500       3.11000     18.46700
   73     1     1      0.08732      24.11900       3.72800     17.85700
   74     1     1      0.09084      25.31300       1.67600     18.72600
   75     1     1      0.09084      23.77900       1.02700     19.25300
   76     1     1      0.08506      24.40200       0.07700     17.04600
   77     1     1      0.08506      24.49200       1.68900     16.34400
   78     1     1      0.08506      22.94000       1.04500     16.88200
   79     2     2     -0.17365      18.58300      24.92400     16.66500
   80     2     2     -0.12803      19.71500      23.89200     16.87900
   81     2     2     -0.17513      18.79800      25.81900     15.42800
   82     2     2     -0.17599      19.24800      22.64300     17.65500
   83     2     2     -0.16169      18.35900      21.67200     16.85000
   84     2     2     -0.17065      17.72200      20.56300     17.71000
   85     2     2     -0.17514      16.28700      20.86700     18.17800
   86     2     2     -0.19006      16.17100      22.06500     19.13500
   87     2     2     -0.19637      14.77300      22.22300     19.75600
   88     2     2     -0.19419      13.68800      22.59600     18.73000
   89     2     2     -0.17878      12.33500      22.95300     19.36900
   90     2     2     -0.18820      11.64400      21.76000     20.04900
   91     2     2     -0.24674      10.25300      22.12000     20.58400
   92     2     2     -0.11352      20.28900      26.12300     15.18500
   93     2     2     -0.17874      21.07100      24.81300     14.92500
   94     2     2     -0.19251      20.42700      23.56100     15.55600
   95     2     2     -0.16067      20.47300      27.17400     14.06800
   96     2     2     -0.17214      21.86900      27.82500     14.00300
   97     2     2     -0.18356      22.88900      27.07000     13.12900
   98     2     2     -0.19046      24.27100      27.74200     13.08100
   99     2     2     -0.18191      24.28200      29.08800     12.33500
  100     2     2     -0.18778      25.69500      29.66500     12.12700
  101     2     2     -0.17894      26.47400      29.97100     13.42300
  102     2     2     -0.17811      25.77600      30.93600     14.39800
  103     2     2     -0.18570      25.52900      32.33600     13.81300
  104     2     2     -0.24374      24.92800      33.29900     14.84300
  105     2     1      0.08611      20.66500      26.55900     16.11300
  106     2     1      0.09284      21.17500      24.63500     13.85300
  107     2     1      0.09284      22.08500      24.93100     15.31100
  108     2     1      0.10086      19.70600      23.14200     14.85300
  109     2     1      0.10086      21.18700      22.79300     15.70500
  110     2     1      0.09834      20.46000      24.37800     17.51100
  111     2     1      0.09148      17.61200      24.43700     16.57100
  112     2     1      0.09148      18.50700      25.54700     17.55800
  113     2     1      0.09413      18.22600      26.74000     15.54900
  114     2     1      0.09413      18.38700      25.32500     14.54500
  115     2     1      0.08792      18.73600      22.96800     18.56000
  116     2     1      0.08792      20.12500      22.09700     18.00700
  117     2     1      0.09013      18.97800      21.20000     16.08600
  118     2     1      0.09013      17.58200      22.20500     16.30300
  119     2     1      0.08091      17.68200      19.65200     17.11000
  120     2     1      0.08091      18.36200      20.32000     18.55900
  121     2     1      0.08514      15.89500      19.97800     18.67600
  122     2     1      0.08514      15.65000      21.02300     17.30700
  123     2     1      0.09716      16.89700      21.94600     19.94100
  124     2     1      0.09716      16.44200      22.98500     18.61600
  125     2     1      0.09299      14.82100      23.00100     20.51900
  126     2     1      0.09299      14.50300      21.30600     20.27900
  127     2     1      0.09453      13.54900      21.78500     18.01400
  128     2     1      0.09453      14.03000      23.45300     18.14800
  129     2     1      0.09448      12.46700      23.76700     20.08300
  130     2     1      0.09448      11.67900      23.34400     18.58900
  131     2     1      0.09408      11.55500      20.93300     19.34300
  132     2     1      0.09408      12.25500      21.39400     20.87400
  133     2     1      0.08403       9.59100      22.45100     19.78300
  134     2     1      0.08403       9.78400      21.26000     21.06300
  135     2     1      0.08403      10.30700      22.92000     21.32400
  136     2     1      0.08566      20.19200      26.76400     13.09700
  137     2     1      0.08566      19.76000      27.97900     14.25300
  138     2     1      0.08602      21.74200      28.82700     13.59200
  139     2     1      0.08602      22.26300      27.97000     15.00900
  140     2     1      0.09358      22.49800      26.95300     12.11700
  141     2     1      0.09358      23.02300      26.06100     13.51300
  142     2     1      0.08951      24.96800      27.06100     12.58900
  143     2     1      0.08951      24.64500      27.86900     14.09700
  144     2     1      0.09827      23.81900      28.95600     11.35600
  145     2     1      0.09827      23.66300      29.81800     12.85600
  146     2     1      0.08969      26.27800      28.97000     11.52100
  147     2     1      0.08969      25.62200      30.57400     11.52700
  148     2     1      0.08779      27.45100      30.37800     13.15700
  149     2     1      0.08779      26.68800      29.03700     13.94300
  150     2     1      0.08732      24.83600      30.50300     14.74400
  151     2     1      0.08732      26.39900      31.02900     15.29000
  152     2     1      0.09084      26.46600      32.74800     13.43600
  153     2     1      0.09084      24.85500      32.26800     12.95700
  154     2     1      0.08506      24.75900      34.28300     14.40300
  155     2     1      0.08506      25.59100      33.43100     15.69800
  156     2     1      0.08506      23.96900      32.93500     15.21400
  157     3     2     -0.17365      14.32600      12.01400      7.82100
  158     3     2     -0.12803      15.74100      12.54900      8.14400
  159     3     2     -0.17513      13.34700      13.11300      7.36000
  160     3     2     -0.17599      16.83800      11.47700      7.98400
  161     3     2     -0.16169      17.18500      11.11400      6.52500
  162     3     2     -0.17065      18.10700       9.88700      6.39800
  163     3     2     -0.17514      17.37000       8.55900      6.14000
  164     3     2     -0.19006      16.45700       8.10600      7.29100
  165     3     2     -0.19637      15.89600       6.68600      7.10800
  166     3     2     -0.19419      14.91600       6.56300      5.92800
  167     3     2     -0.17878      14.20000       5.20400      5.86200
  168     3     2     -0.18820      15.13800       4.03100      5.53800
  169     3     2     -0.24674      14.38100       2.70700      5.37500
  170     3     2     -0.11352      13.61200      14.45700      8.06300
  171     3     2     -0.17874      15.03600      14.96700      7.73500
  172     3     2     -0.19251      16.03600      13.84800      7.37400
  173     3     2     -0.16067      12.50800      15.48700      7.74100
  174     3     2     -0.17214      12.46200      16.71600      8.67100
  175     3     2     -0.18356      13.35300      17.89100      8.22600
  176     3     2     -0.19046      13.28800      19.10200      9.17200
  177     3     2     -0.18191      11.93000      19.82600      9.16000
  178     3     2     -0.18778      11.92700      21.14200      9.96200
  179     3     2     -0.17894      12.23700      20.99300     11.46500
  180     3     2     -0.17811      11.30700      20.03900     12.23700
  181     3     2     -0.18570       9.83300      20.47800     12.23700
  182     3     2     -0.24374       8.95400      19.56500     13.09900
  183     3     1      0.08611      13.56800      14.25300      9.13500
  184     3     1      0.09284      15.00700      15.67500      6.90600
  185     3     1      0.09284      15.41300      15.52300      8.59500
  186     3     1      0.10086      15.97600      13.65400      6.30200
  187     3     1      0.10086      17.05400      14.19000      7.56400
  188     3     1      0.09834      15.73500      12.81900      9.20200
  189     3     1      0.09148      14.35900      11.24000      7.05500
  190     3     1      0.09148      13.92900      11.52100      8.71100
  191     3     1      0.09413      12.32500      12.77500      7.53300
  192     3     1      0.09413      13.43900      13.25200      6.28100
  193     3     1      0.08792      16.53800      10.58900      8.53800
  194     3     1      0.08792      17.74700      11.82500      8.47700
  195     3     1      0.09013      17.68700      11.96900      6.07300
  196     3     1      0.09013      16.28400      10.96000      5.92900
  197     3     1      0.08091      18.77800      10.05500      5.55300
  198     3     1      0.08091      18.75800       9.80300      7.26900
  199     3     1      0.08514      18.11500       7.78500      5.95400
  200     3     1      0.08514      16.79300       8.64300      5.21800
  201     3     1      0.09716      17.02000       8.13900      8.22500
  202     3     1      0.09716      15.63100       8.80800      7.41100
  203     3     1      0.09299      15.38200       6.39800      8.02700
  204     3     1      0.09299      16.72100       5.98300      6.99300
  205     3     1      0.09453      15.43300       6.74700      4.98500
  206     3     1      0.09453      14.16100       7.34700      6.01100
  207     3     1      0.09448      13.67600       5.01700      6.80100
  208     3     1      0.09448      13.42500       5.26000      5.09500
  209     3     1      0.09408      15.69100       4.24200      4.62200
  210     3     1      0.09408      15.88200       3.91700      6.32700
  211     3     1      0.08403      13.65400       2.76100      4.56500
  212     3     1      0.08403      15.06800       1.89000      5.14800
  213     3     1      0.08403      13.84500       2.44200      6.28800
  214     3     1      0.08566      12.55600      15.79600      6.69600
  215     3     1      0.08566      11.54600      14.98200      7.84200
  216     3     1      0.08602      11.42900      17.06300      8.70300
  217     3     1      0.08602      12.70300      16.42100      9.69300
  218     3     1      0.09358      13.08900      18.19700      7.21300
  219     3     1      0.09358      14.39000      17.56500      8.17600
  220     3     1      0.08951      14.06700      19.80900      8.88000
  221     3     1      0.08951      13.53800      18.78300     10.18400
  222     3     1      0.09827      11.65600      20.05400      8.12800
  223     3     1      0.09827      11.14400      19.17000      9.53300
  224     3     1      0.08969      12.64900      21.83000      9.52000
  225     3     1      0.08969      10.95800      21.62900      9.83900
  226     3     1      0.08779      12.20200      21.97900     11.93000
  227     3     1      0.08779      13.26700      20.65700     11.58900
  228     3     1      0.08732      11.39600      19.02700     11.84100
  229     3     1      0.08732      11.65900      19.98100     13.26900
  230     3     1      0.09084       9.75400      21.50300     12.60000
  231     3     1      0.09084       9.44600      20.48100     11.21700
  232     3     1      0.08506       7.91400      19.89400     13.08000
  233     3     1      0.08506       9.28100      19.56600     14.14000
  234     3     1      0.08506       8.98100      18.53500     12.74100
  235     4     2     -0.17365      33.17400      23.02100     41.58400
  236     4     2     -0.12803      33.81000      22.93800     42.99200
  237     4     2     -0.17513      33.60900      24.26900     40.79100
  238     4     2     -0.17599      33.91300      21.49200     43.51800
  239     4     2     -0.16169      35.00700      20.63200     42.84900
  240     4     2     -0.17065      34.93400      19.14000     43.22400
  241     4     2     -0.17514      34.17600      18.26400     42.20900
  242     4     2     -0.19006      32.68000      18.59400     42.07900
  243     4     2     -0.19637      31.90000      17.58000     41.22500
  244     4     2     -0.19419      32.30500      17.59100     39.74000
  245     4     2     -0.17878      31.39500      16.73000     38.84800
  246     4     2     -0.18820      31.50500      15.22400     39.13100
  247     4     2     -0.24674      30.66800      14.38500     38.15800
  248     4     2     -0.11352      33.82600      25.49100     41.70500
  249     4     2     -0.17874      34.94900      25.20600     42.73000
  250     4     2     -0.19251      35.14000      23.70800     43.05100
  251     4     2     -0.16067      34.06700      26.77400     40.88000
  252     4     2     -0.17214      33.91800      28.09500     41.66100
  253     4     2     -0.18356      35.20700      28.58300     42.34700
  254     4     2     -0.19046      35.03000      29.90200     43.11800
  255     4     2     -0.18191      34.77700      31.12100     42.21200
  256     4     2     -0.18778      34.78600      32.46200     42.96900
  257     4     2     -0.17894      33.70900      32.60400     44.06400
  258     4     2     -0.17811      32.25800      32.41100     43.58700
  259     4     2     -0.18570      31.81000      33.44000     42.53600
  260     4     2     -0.24374      30.33200      33.28400     42.16100
  261     4     1      0.08611      32.89400      25.62500     42.25700
  262     4     1      0.09284      35.90200      25.59900     42.37400
  263     4     1      0.09284      34.72400      25.74600     43.65100
  264     4     1      0.10086      35.83800      23.27900     42.33100
  265     4     1      0.10086      35.61000      23.59900     44.03000
  266     4     1      0.09834      33.12900      23.45700     43.67000
  267     4     1      0.09148      33.40700      22.13800     40.99000
  268     4     1      0.09148      32.08800      23.01700     41.69300
  269     4     1      0.09413      32.86400      24.48200     40.02400
  270     4     1      0.09413      34.53700      24.05600     40.25700
  271     4     1      0.08792      32.93900      21.01500     43.41800
  272     4     1      0.08792      34.10600      21.51800     44.59200
  273     4     1      0.09013      35.97800      21.01700     43.16000
  274     4     1      0.09013      34.98800      20.74000     41.76400
  275     4     1      0.08091      35.95400      18.75700     43.28500
  276     4     1      0.08091      34.52000      19.01500     44.22600
  277     4     1      0.08514      34.28300      17.22100     42.51100
  278     4     1      0.08514      34.66100      18.34200     41.23600
  279     4     1      0.09716      32.23500      18.62300     43.07400
  280     4     1      0.09716      32.55300      19.59200     41.65900
  281     4     1      0.09299      30.83600      17.81000     41.30400
  282     4     1      0.09299      32.02200      16.58200     41.64500
  283     4     1      0.09453      33.33900      17.26300     39.62700
  284     4     1      0.09453      32.27600      18.61800     39.37300
  285     4     1      0.09448      30.35900      17.05700     38.95300
  286     4     1      0.09448      31.66100      16.91500     37.80600
  287     4     1      0.09408      32.54900      14.91100     39.06800
  288     4     1      0.09408      31.18200      15.00900     40.15000
  289     4     1      0.08403      30.98700      14.53400     37.12600
  290     4     1      0.08403      30.76000      13.32100     38.38000
  291     4     1      0.08403      29.61000      14.64300     38.22100
  292     4     1      0.08566      35.03000      26.73300     40.36900
  293     4     1      0.08566      33.32300      26.79700     40.08100
  294     4     1      0.08602      33.59800      28.85900     40.95100
  295     4     1      0.08602      33.10700      28.01300     42.38600
  296     4     1      0.09358      36.00600      28.68800     41.61100
  297     4     1      0.09358      35.55300      27.83100     43.05300
  298     4     1      0.08951      35.93200      30.08100     43.70600
  299     4     1      0.08951      34.22000      29.79200     43.83900
  300     4     1      0.09827      35.54900      31.15800     41.44100
  301     4     1      0.09827      33.83400      31.01000     41.67800
  302     4     1      0.08969      35.76800      32.61000     43.42000
  303     4     1      0.08969      34.67900      33.27600     42.24900
  304     4     1      0.08779      33.80500      33.58800     44.52500
  305     4     1      0.08779      33.91400      31.89300     44.86500
  306     4     1      0.08732      32.12100      31.39900     43.20300
  307     4     1      0.08732      31.60100      32.48400     44.45600
  308     4     1      0.09084      31.98300      34.44900     42.91200
  309     4     1      0.09084      32.41600      33.33900     41.63400
  310     4     1      0.08506      30.04000      34.02100     41.41200
  311     4     1      0.08506      29.68500      33.42100     43.02900
  312     4     1      0.08506      30.13000      32.29500     41.74700
  313     5     2     -0.17365      36.95800      12.45900     31.21100
  314     5     2     -0.12803      36.61500      13.12500     29.85800
  315     5     2     -0.17513      37.92600      13.29300     32.07500
  316     5     2     -0.17599      35.24900      12.67800     29.29900
  317     5     2     -0.16169      34.02300      13.26700     30.02800
  318     5     2     -0.17065      32.68800      12.62900     29.60400
  319     5     2     -0.17514      32.20100      11.49600     30.52700
  320     5     2     -0.19006      33.11100      10.25700     30.54600
  321     5     2     -0.19637      32.50700       9.06200     31.30300
  322     5     2     -0.19419      32.36100       9.30700     32.81500
  323     5     2     -0.17878      31.94900       8.05300     33.60400
  324     5     2     -0.18820      30.52600       7.56700     33.28600
  325     5     2     -0.24674      30.10600       6.38100     34.16200
  326     5     2     -0.11352      38.94900      14.06400     31.21800
  327     5     2     -0.17874      38.22600      15.05900     30.27900
  328     5     2     -0.19251      36.77800      14.65400     29.93000
  329     5     2     -0.16067      40.02700      14.73300     32.09800
  330     5     2     -0.17214      41.29100      15.20000     31.34800
  331     5     2     -0.18356      41.20900      16.63100     30.78300
  332     5     2     -0.19046      42.48100      17.07100     30.04100
  333     5     2     -0.18191      43.70200      17.25700     30.95900
  334     5     2     -0.18778      44.92000      17.87400     30.24700
  335     5     2     -0.17894      45.48200      17.04600     29.07200
  336     5     2     -0.17811      45.89800      15.60600     29.42400
  337     5     2     -0.18570      47.02600      15.52500     30.46600
  338     5     2     -0.24374      47.48600      14.08400     30.71500
  339     5     1      0.08611      39.44700      13.31800     30.59600
  340     5     1      0.09284      38.19900      16.05500     30.72400
  341     5     1      0.09284      38.80500      15.15300     29.36000
  342     5     1      0.10086      36.10600      15.05200     30.69100
  343     5     1      0.10086      36.48300      15.12100     28.99000
  344     5     1      0.09834      37.36300      12.77400     29.14300
  345     5     1      0.09148      36.06000      12.26200     31.79600
  346     5     1      0.09148      37.39500      11.47900     31.01500
  347     5     1      0.09413      38.42800      12.63500     32.78500
  348     5     1      0.09413      37.35700      14.00500     32.67600
  349     5     1      0.08792      35.21100      11.59000     29.30600
  350     5     1      0.08792      35.18900      12.95700     28.24500
  351     5     1      0.09013      33.97900      14.33400     29.80900
  352     5     1      0.09013      34.13500      13.20000     31.11100
  353     5     1      0.08091      31.92300      13.40700     29.61400
  354     5     1      0.08091      32.73600      12.28700     28.56800
  355     5     1      0.08514      31.20300      11.19700     30.20400
  356     5     1      0.08514      32.08000      11.88500     31.53900
  357     5     1      0.09716      33.31400       9.95000     29.51900
  358     5     1      0.09716      34.07700      10.51000     30.98300
  359     5     1      0.09299      33.14900       8.19400     31.14500
  360     5     1      0.09299      31.54300       8.80500     30.86400
  361     5     1      0.09453      31.64100      10.10600     33.00200
  362     5     1      0.09453      33.31200       9.66600     33.20900
  363     5     1      0.09448      32.66800       7.25200     33.42600
  364     5     1      0.09448      32.01500       8.28000     34.67000
  365     5     1      0.09408      29.81700       8.38400     33.42400
  366     5     1      0.09408      30.45600       7.27400     32.23800
  367     5     1      0.08403      30.11800       6.64300     35.22000
  368     5     1      0.08403      29.09500       6.05300     33.91600
  369     5     1      0.08403      30.77100       5.52800     34.02200
  370     5     1      0.08566      39.60200      15.54800     32.68400
  371     5     1      0.08566      40.35500      13.99600     32.83400
  372     5     1      0.08602      42.12200      15.15800     32.05200
  373     5     1      0.08602      41.54100      14.49200     30.55800
  374     5     1      0.09358      40.98400      17.33600     31.58400
  375     5     1      0.09358      40.37700      16.70100     30.08500
  376     5     1      0.08951      42.27500      18.01500     29.53400
  377     5     1      0.08951      42.70600      16.35100     29.25300
  378     5     1      0.09827      43.42700      17.90700     31.79100
  379     5     1      0.09827      43.98800      16.30700     31.41200
  380     5     1      0.08969      44.65300      18.86600     29.88000
  381     5     1      0.08969      45.71100      18.04400     30.97900
  382     5     1      0.08779      46.33900      17.57100     28.65000
  383     5     1      0.08779      44.74400      17.01300     28.26900
  384     5     1      0.08732      45.03200      15.03800     29.76500
  385     5     1      0.08732      46.22700      15.11300     28.50700
  386     5     1      0.09084      47.87600      16.12300     30.13600
  387     5     1      0.09084      46.69200      15.95700     31.41000
  388     5     1      0.08506      48.28300      14.05300     31.45900
  389     5     1      0.08506      47.87000      13.62600     29.80200
  390     5     1      0.08506      46.66700      13.46400     31.08200
  391     6     2     -0.17365      12.58200      40.30800      3.31900
  392     6     2     -0.12803      12.61600      39.02700      2.45300
  393     6     2     -0.17513      11.80000      40.13300      4.63700
  394     6     2     -0.17599      13.84300      38.96700      1.52000
  395     6     2     -0.16169      15.18200      38.66300      2.22400
  396     6     2     -0.17065      16.41100      38.83900      1.31300
  397     6     2     -0.17514      17.10700      40.20800      1.43700
  398     6     2     -0.19006      16.24700      41.40000      0.98200
  399     6     2     -0.19637      17.02300      42.72600      0.91500
  400     6     2     -0.19419      17.48100      43.23800      2.29200
  401     6     2     -0.17878      18.07700      44.65500      2.25400
  402     6     2     -0.18820      19.41000      44.74000      1.49500
  403     6     2     -0.24674      20.03200      46.14000      1.56400
  404     6     2     -0.11352      10.60400      39.17600      4.47900
  405     6     2     -0.17874      11.09000      37.76700      4.06400