LAMMPS data file of the system for full atom style

    4970 atoms
    5110 bonds
   10500 angles
   17010 dihedrals

    2 atom types
    2 bond types
    3 angle types
    2 dihedral types

    0.000000    50.000000 xlo xhi
    0.000000    50.000000 ylo yhi
    0.000000    50.000000 zlo zhi

 Masses 

    1       1.0080
    2      12.0110

 Pair Coeffs 

    1       0.0300       2.5000
    2       0.0660       3.5000

 Bond Coeffs 

    1     268.0000        1.5290
    2     340.0000        1.0900

 Angle Coeffs 

    1      33.0000      107.8000
    2      37.5000      110.7000
    3      58.3500      112.7000

 Dihedral Coeffs 

    1       0.0000        0.0000       0.3000        0.0000
    2       0.8500       -0.2000       0.2000        0.0000

 Atoms 

    1     1     2     -0.09839      40.90300      37.77000     40.36200
    2     1     2     -0.16798      42.23600      37.68100     41.14200
    3     1     2     -0.17019      43.49100      37.33100     40.31700
    4     1     2     -0.16647      43.83700      38.31400     39.17900
    5     1     2     -0.11989      44.08800      39.76200     39.63700
    6     1     2     -0.18113      45.26100      39.92300     40.61200
    7     1     2     -0.20556      45.79700      41.34800     40.41000
    8     1     2     -0.19637      45.09800      41.90600     39.16400
    9     1     2     -0.18154      44.44000      40.70400     38.48500
   10     1     2     -0.15613      40.43300      36.41000     39.78900
   11     1     2     -0.18334      40.84100      36.16900     38.32600
   12     1     2     -0.19289      40.34300      34.81600     37.79600
   13     1     2     -0.12815      40.70400      34.57800     36.31900
   14     1     2     -0.18672      42.21200      34.49000     36.05600
   15     1     2     -0.19631      42.33100      33.65200     34.78500
   16     1     2     -0.19449      41.22300      32.60900     34.91900
   17     1     2     -0.18382      40.11900      33.27000     35.75700
   18     1     2     -0.17802      39.80200      38.42900     41.22100
   19     1     2     -0.15990      39.43000      37.65400     42.50300
   20     1     2     -0.15324      38.20900      38.24400     43.24000
   21     1     2     -0.11809      36.87300      37.50300     43.02400
   22     1     2     -0.19207      36.81300      36.09000     43.63600
   23     1     2     -0.20024      36.05100      35.21100     42.63400
   24     1     2     -0.20623      35.44100      36.17200     41.61100
   25     1     2     -0.18861      36.42200      37.34100     41.56800
   26     1     1      0.08603      41.04700      38.45800     39.52700
   27     1     1      0.08394      42.41500      38.62400     41.65900
   28     1     1      0.08394      42.13900      36.94000     41.93700
   29     1     1      0.08850      43.38800      36.32500     39.91200
   30     1     1      0.08850      44.34200      37.26900     40.99600
   31     1     1      0.09149      44.72200      37.94300     38.65900
   32     1     1      0.09149      43.04400      38.30800     38.43100
   33     1     1      0.10388      43.18700      40.15300     40.11200
   34     1     1      0.09927      46.04900      39.20600     40.37400
   35     1     1      0.09927      44.96000      39.73700     41.64400
   36     1     1      0.09467      45.59300      41.97500     41.27900
   37     1     1      0.09467      46.88000      41.32900     40.27600
   38     1     1      0.09372      45.78400      42.43300     38.49800
   39     1     1      0.09372      44.33000      42.61900     39.46600
   40     1     1      0.09152      43.56900      40.98600     37.89100
   41     1     1      0.09152      45.15700      40.23000     37.81300
   42     1     1      0.08349      39.34500      36.35400     39.83300
   43     1     1      0.08349      40.79000      35.59500     40.42000
   44     1     1      0.09859      40.44300      36.97100     37.70200
   45     1     1      0.09859      41.92300      36.21700     38.22700
   46     1     1      0.09413      40.74500      34.00900     38.40900
   47     1     1      0.09413      39.25800      34.76800     37.90600
   48     1     1      0.11083      40.30500      35.40000     35.72000
   49     1     1      0.10003      42.71100      33.97500     36.87900
   50     1     1      0.10003      42.68000      35.47000     35.95200
   51     1     1      0.09754      42.14500      34.27900     33.91200
   52     1     1      0.09754      43.31900      33.20600     34.66500
   53     1     1      0.08960      40.86000      32.26500     33.94900
   54     1     1      0.08960      41.60600      31.73400     35.44800
   55     1     1      0.09626      39.23600      33.47800     35.14900
   56     1     1      0.09626      39.79900      32.59200     36.55100
   57     1     1      0.08693      38.91500      38.57500     40.60400
   58     1     1      0.08693      40.11800      39.43600     41.49700
   59     1     1      0.09003      40.28200      37.67500     43.18100
   60     1     1      0.09003      39.26100      36.59900     42.28000
   61     1     1      0.07960      38.42000      38.24400     44.31100
   62     1     1      0.07960      38.09200      39.29600     42.97700
   63     1     1      0.09861      36.09900      38.09000     43.52600
   64     1     1      0.10074      36.30000      36.11900     44.59900
   65     1     1      0.10074      37.80300      35.67500     43.82500
   66     1     1      0.09209      36.75200      34.54200     42.13100
   67     1     1      0.09209      35.29700      34.58500     43.11400
   68     1     1      0.09704      34.46700      36.51900     41.96300
   69     1     1      0.09704      35.29200      35.70900     40.63500
   70     1     1      0.10403      35.97900      38.25000     41.15800
   71     1     1      0.10403      37.25800      37.06400     40.92600
   72     2     2     -0.09839      25.08800      20.14900     22.76000
   73     2     2     -0.16798      26.25300      19.24000     22.29900
   74     2     2     -0.17019      27.14500      19.79100     21.16900
   75     2     2     -0.16647      27.86300      21.12200     21.47300
   76     2     2     -0.11989      28.79800      21.08100     22.69500
   77     2     2     -0.18113      29.95100      20.07700     22.57500
   78     2     2     -0.20556      31.09300      20.62600     23.44200
   79     2     2     -0.19637      30.68600      22.04800     23.85300
   80     2     2     -0.18154      29.50200      22.41300     22.95900
   81     2     2     -0.15613      23.99700      20.34800     21.67900
   82     2     2     -0.18334      24.16800      21.62600     20.84100
   83     2     2     -0.19289      23.05800      21.79000     19.79200
   84     2     2     -0.12815      23.18800      23.08700     18.97500
   85     2     2     -0.18672      24.45500      23.15200     18.11400
   86     2     2     -0.19631      24.09600      24.10500     16.97600
   87     2     2     -0.19449      22.63200      23.79200     16.67200
   88     2     2     -0.18382      22.02200      23.30300     17.99400
   89     2     2     -0.17802      24.48000      19.64000     24.08600
   90     2     2     -0.15990      23.84600      18.23500     24.00900
   91     2     2     -0.15324      23.09500      17.83500     25.29600
   92     2     2     -0.11809      21.55800      17.96500     25.24400
   93     2     2     -0.19207      20.85900      16.97900     24.28800
   94     2     2     -0.20024      19.72000      17.75700     23.61100
   95     2     2     -0.20623      19.59600      19.07300     24.38200
   96     2     2     -0.18861      21.01300      19.35100     24.87600
   97     2     1      0.08603      25.50200      21.12800     23.00800
   98     2     1      0.08394      26.88600      19.00400     23.15500
   99     2     1      0.08394      25.85200      18.27900     21.97300
  100     2     1      0.08850      26.55300      19.89500     20.26000
  101     2     1      0.08850      27.89400      19.03700     20.92500
  102     2     1      0.09149      28.43600      21.41500     20.59100
  103     2     1      0.09149      27.12800      21.91600     21.61200
  104     2     1      0.10388      28.21900      20.83800     23.58700
  105     2     1      0.09927      30.28700      20.01100     21.53900
  106     2     1      0.09927      29.64900      19.07300     22.87800
  107     2     1      0.09467      31.25700      20.00400     24.32300
  108     2     1      0.09467      32.02800      20.63400     22.87800
  109     2     1      0.09372      31.50800      22.76100     23.76400
  110     2     1      0.09372      30.36900      22.04900     24.89700
  111     2     1      0.09152      28.84400      23.15300     23.42000
  112     2     1      0.09152      29.87000      22.83900     22.02400
  113     2     1      0.08349      23.01900      20.40500     22.15700
  114     2     1      0.08349      23.95100      19.47300     21.02900
  115     2     1      0.09859      24.17200      22.49500     21.50300
  116     2     1      0.09859      25.13500      21.62100     20.34300
  117     2     1      0.09413      23.05500      20.93000     19.12200
  118     2     1      0.09413      22.08900      21.78500     20.29500
  119     2     1      0.11083      23.20200      23.93700     19.66000
  120     2     1      0.10003      24.68700      22.16700     17.70400
  121     2     1      0.10003      25.33000      23.48600     18.67500
  122     2     1      0.09754      24.19100      25.13700     17.31600
  123     2     1      0.09754      24.74300      23.98500     16.10500
  124     2     1      0.08960      22.10200      24.65300     16.26100
  125     2     1      0.08960      22.57500      22.99400     15.92900
  126     2     1      0.09626      21.31800      24.03500     18.39500
  127     2     1      0.09626      21.45600      22.38500     17.82500
  128     2     1      0.08693      23.74300      20.36300     24.43400
  129     2     1      0.08693      25.25300      19.63700     24.85600
  130     2     1      0.09003      24.63700      17.50600     23.83400
  131     2     1      0.09003      23.18300      18.15800     23.14700
  132     2     1      0.07960      23.33100      16.79400     25.52500
  133     2     1      0.07960      23.48200      18.40300     26.14300
  134     2     1      0.09861      21.18500      17.74100     26.24600
  135     2     1      0.10074      20.47000      16.12500     24.84600
  136     2     1      0.10074      21.53800      16.57400     23.53700
  137     2     1      0.09209      19.99000      17.96600     22.57500
  138     2     1      0.09209      18.78400      17.19800     23.59400
  139     2     1      0.09704      18.92600      18.94300     25.23400
  140     2     1      0.09704      19.19600      19.88300     23.77000
  141     2     1      0.10403      21.04000      20.05100     25.71200
  142     2     1      0.10403      21.58200      19.79200     24.05800
  143     3     2     -0.09839      36.03900      34.04700     21.94300
  144     3     2     -0.16798      35.13200      35.26000     21.62300
  145     3     2     -0.17019      35.83900      36.51700     21.07600
  146     3     2     -0.16647      36.61700      36.32500     19.75800
  147     3     2     -0.11989      35.76200      35.83800     18.57400
  148     3     2     -0.18113      34.62700      36.79100     18.18000
  149     3     2     -0.20556      34.36800      36.55700     16.68400
  150     3     2     -0.19637      35.50600      35.66200     16.17800
  151     3     2     -0.18154      36.56300      35.67200     17.28200
  152     3     2     -0.15613      37.01000      34.29900     23.12300
  153     3     2     -0.18334      38.41400      34.75900     22.69500
  154     3     2     -0.19289      39.34700      34.98300     23.89400
  155     3     2     -0.12815      40.76900      35.40000     23.48100
  156     3     2     -0.18672      40.83400      36.75500     22.76600
  157     3     2     -0.19631      42.25300      37.25700     23.02600
  158     3     2     -0.19449      42.55500      36.80400     24.45400
  159     3     2     -0.18382      41.73300      35.52600     24.67400
  160     3     2     -0.17802      35.19600      32.77200     22.17100
  161     3     2     -0.15990      34.23000      32.84100     23.37300
  162     3     2     -0.15324      33.53900      31.49500     23.67600
  163     3     2     -0.11809      34.12600      30.69200     24.85600
  164     3     2     -0.19207      33.92400      31.33800     26.24000
  165     3     2     -0.20024      35.21900      31.09600     27.03000
  166     3     2     -0.20623      36.02500      30.08200     26.21400
  167     3     2     -0.18861      35.62100      30.36400     24.76900
  168     3     1      0.08603      36.63300      33.82700     21.05600
  169     3     1      0.08394      34.36500      34.95800     20.91000
  170     3     1      0.08394      34.58400      35.54700     22.52100
  171     3     1      0.08850      36.50600      36.91700     21.83900
  172     3     1      0.08850      35.08900      37.29600     20.93000
  173     3     1      0.09149      37.08900      37.27300     19.49400
  174     3     1      0.09149      37.44300      35.63000     19.91200
  175     3     1      0.10388      35.33000      34.86600     18.81500
  176     3     1      0.09927      34.93400      37.82700     18.33300
  177     3     1      0.09927      33.73200      36.63000     18.78400
  178     3     1      0.09467      33.40100      36.08000     16.51900
  179     3     1      0.09467      34.35100      37.50900     16.15000
  180     3     1      0.09372      35.90700      35.99500     15.21800
  181     3     1      0.09372      35.13600      34.64600     16.03700
  182     3     1      0.09152      37.17600      34.76800     17.28100
  183     3     1      0.09152      37.23100      36.52300     17.13800
  184     3     1      0.08349      37.13300      33.37900     23.69500
  185     3     1      0.08349      36.57400      35.01500     23.82000
  186     3     1      0.09859      38.85100      34.01200     22.02900
  187     3     1      0.09859      38.34600      35.67700     22.11600
  188     3     1      0.09413      38.91900      35.73500     24.55700
  189     3     1      0.09413      39.40400      34.06300     24.47700
  190     3     1      0.11083      41.17800      34.64300     22.80800
  191     3     1      0.10003      40.11700      37.45000     23.20400
  192     3     1      0.10003      40.60900      36.68100     21.70000
  193     3     1      0.09754      42.94500      36.77900     22.33200
  194     3     1      0.09754      42.34800      38.33600     22.89600
  195     3     1      0.08960      43.62200      36.64800     24.62000
  196     3     1      0.08960      42.22900      37.57200     25.15700
  197     3     1      0.09626      42.38000      34.64900     24.73500
  198     3     1      0.09626      41.19800      35.58800     25.62400
  199     3     1      0.08693      35.87000      31.92200     22.28300
  200     3     1      0.08693      34.62300      32.55600     21.26800
  201     3     1      0.09003      33.45900      33.58000     23.15600
  202     3     1      0.09003      34.74500      33.20900     24.26100
  203     3     1      0.07960      32.48800      31.68800     23.89700
  204     3     1      0.07960      33.52800      30.87300     22.78000
  205     3     1      0.09861      33.59900      29.73500     24.88300
  206     3     1      0.10074      33.06800      30.88700     26.74600
  207     3     1      0.10074      33.71700      32.40700     26.17600
  208     3     1      0.09209      35.77900      32.03000     27.10600
  209     3     1      0.09209      35.03000      30.75000     28.04800
  210     3     1      0.09704      35.73200      29.06700     26.48900
  211     3     1      0.09704      37.10000      30.17100     26.37700
  212     3     1      0.10403      35.83300      29.52900     24.10000
  213     3     1      0.10403      36.19200      31.22200     24.41400
  214     4     2     -0.09839      42.57400      10.17700     30.82800
  215     4     2     -0.16798      41.13700       9.74200     31.20300
  216     4     2     -0.17019      40.13100      10.87500     31.49300
  217     4     2     -0.16647      39.88800      11.86500     30.33400
  218     4     2     -0.11989      39.35500      11.22000     29.04200
  219     4     2     -0.18113      38.00000      10.51800     29.19900
  220     4     2     -0.20556      37.32400      10.57300     27.82100
  221     4     2     -0.19637      38.17500      11.50900     26.95300
  222     4     2     -0.18154      39.11300      12.23100     27.92100
  223     4     2     -0.15613      43.33100      10.86800     31.99000
  224     4     2     -0.18334      43.26000      12.40300     31.96200
  225     4     2     -0.19289      44.03500      13.04600     33.12200
  226     4     2     -0.12815      44.01200      14.58300     33.08400
  227     4     2     -0.18672      42.61300      15.18700     33.26000
  228     4     2     -0.19631      42.86700      16.58300     33.82400
  229     4     2     -0.19449      44.05800      16.39700     34.76200
  230     4     2     -0.18382      44.87100      15.22900     34.18600
  231     4     2     -0.17802      43.38000       8.98900     30.25900
  232     4     2     -0.15990      43.59200       7.81900     31.24300
  233     4     2     -0.15324      44.54800       6.73500     30.70300
  234     4     2     -0.11809      45.98900       6.77800     31.25300
  235     4     2     -0.19207      46.11900       6.43400     32.74900
  236     4     2     -0.20024      47.18000       7.38400     33.32600
  237     4     2     -0.20623      47.84400       8.05300     32.12100
  238     4     2     -0.18861      46.74000       8.10200     31.06800
  239     4     1      0.08603      42.50700      10.88400     30.00000
  240     4     1      0.08394      40.73100       9.11600     30.40800
  241     4     1      0.08394      41.17400       9.09400     32.07900
  242     4     1      0.08850      40.45100      11.42300     32.37900
  243     4     1      0.08850      39.17900      10.42600     31.77500
  244     4     1      0.09149      39.18500      12.62700     30.67300
  245     4     1      0.09149      40.80800      12.40600     30.11000
  246     4     1      0.10388      40.08000      10.49300     28.67300
  247     4     1      0.09927      37.38100      11.05100     29.92300
  248     4     1      0.09927      38.11100       9.49500     29.56400
  249     4     1      0.09467      37.26300       9.58100     27.37000
  250     4     1      0.09467      36.30300      10.94500     27.91500
  251     4     1      0.09372      37.56900      12.20400     26.36800
  252     4     1      0.09372      38.76200      10.92000     26.24800
  253     4     1      0.09152      40.03900      12.55500     27.44000
  254     4     1      0.09152      38.61800      13.12000     28.31300
  255     4     1      0.08349      44.38500      10.59300     31.95000
  256     4     1      0.08349      42.97100      10.49000     32.94800
  257     4     1      0.09859      43.66100      12.76700     31.01400
  258     4     1      0.09859      42.22300      12.73100     31.99800
  259     4     1      0.09413      43.63300      12.69400     34.07300
  260     4     1      0.09413      45.07200      12.70700     33.08900
  261     4     1      0.11083      44.40600      14.91900     32.12200
  262     4     1      0.10003      42.03500      14.60400     33.97800
  263     4     1      0.10003      42.04500      15.21300     32.32800
  264     4     1      0.09754      43.13500      17.26400     33.01600
  265     4     1      0.09754      41.99300      16.99800     34.32800
  266     4     1      0.08960      44.65100      17.30800     34.86200
  267     4     1      0.08960      43.70100      16.13400     35.75900
  268     4     1      0.09626      45.82000      15.57700     33.77400
  269     4     1      0.09626      45.11600      14.52000     34.97900
  270     4     1      0.08693      44.34300       9.35700     29.90500
  271     4     1      0.08693      42.88000       8.61300     29.36500
  272     4     1      0.09003      42.62600       7.35500     31.44300
  273     4     1      0.09003      43.94400       8.18600     32.20700
  274     4     1      0.07960      44.13000       5.75500     30.94400
  275     4     1      0.07960      44.57000       6.77000     29.61300
  276     4     1      0.09861      46.55900       6.01900     30.71100
  277     4     1      0.10074      46.42000       5.39200     32.87200
  278     4     1      0.10074      45.17800       6.54900     33.28700
  279     4     1      0.09209      46.69200       8.14200     33.94100
  280     4     1      0.09209      47.90100       6.86900     33.96300
  281     4     1      0.09704      48.67000       7.43700     31.76300
  282     4     1      0.09704      48.24600       9.04000     32.35600
  283     4     1      0.10403      47.12600       8.23100     30.05500
  284     4     1      0.10403      46.09500       8.95300     31.28500
  285     5     2     -0.09839       7.72700      16.33700     11.93100
  286     5     2     -0.16798       6.93900      15.23200     12.67500
  287     5     2     -0.17019       5.99200      14.37000     11.81600
  288     5     2     -0.16647       6.66000      13.58600     10.66600
  289     5     2     -0.11989       7.75300      12.59900     11.11500
  290     5     2     -0.18113       7.25800      11.49400     12.05700
  291     5     2     -0.20556       8.19000      10.29200     11.83800
  292     5     2     -0.19637       9.04900      10.62300     10.61000
  293     5     2     -0.18154       8.38300      11.83100      9.95200
  294     5     2     -0.15613       6.82600      17.46700     11.37400
  295     5     2     -0.18334       6.42500      17.28300      9.90100
  296     5     2     -0.19289       5.54500      18.43200      9.38600
  297     5     2     -0.12815       5.17200      18.28700      7.90100
  298     5     2     -0.18672       4.30600      17.05800      7.59700
  299     5     2     -0.19631       3.54800      17.42900      6.32500
  300     5     2     -0.19449       3.24300      18.91700      6.49000
  301     5     2     -0.18382       4.37600      19.48600      7.35800
  302     5     2     -0.17802       8.85600      16.90400     12.82000
  303     5     2     -0.15990       8.37600      17.59700     14.11200
  304     5     2     -0.15324       9.51200      18.30500     14.88100
  305     5     2     -0.11809       9.58800      19.83600     14.70400
  306     5     2     -0.19207       8.41100      20.61700     15.32000
  307     5     2     -0.20024       8.07800      21.75200     14.34000
  308     5     2     -0.20623       9.23000      21.78900     13.33400
  309     5     2     -0.18861       9.70700      20.34100     13.26100
  310     5     1      0.08603       8.24700      15.87300     11.09100
  311     5     1      0.08394       7.64000      14.57100     13.18500
  312     5     1      0.08394       6.35000      15.68500     13.47300
  313     5     1      0.08850       5.19600      14.99800     11.41500
  314     5     1      0.08850       5.48200      13.66300     12.47100
  315     5     1      0.09149       5.88500      13.04300     10.12300
  316     5     1      0.09149       7.08200      14.28100      9.94100
  317     5     1      0.10388       8.55300      13.14700     11.61400
  318     5     1      0.09927       6.23700      11.20800     11.79900
  319     5     1      0.09927       7.24600      11.82200     13.09800
  320     5     1      0.09467       8.81900      10.11400     12.71100
  321     5     1      0.09467       7.60500       9.38500     11.67400
  322     5     1      0.09372       9.14400       9.77800      9.92500
  323     5     1      0.09372      10.05600      10.89200     10.93200
  324     5     1      0.09152       9.08900      12.43800      9.38100
  325     5     1      0.09152       7.61100      11.48900      9.26200
  326     5     1      0.08349       7.35100      18.41900     11.44800
  327     5     1      0.08349       5.93700      17.57800     11.99700
  328     5     1      0.09859       7.32500      17.21300      9.28700
  329     5     1      0.09859       5.89800      16.34100      9.77100
  330     5     1      0.09413       4.63900      18.50000      9.99000
  331     5     1      0.09413       6.07400      19.37600      9.52700
  332     5     1      0.11083       6.08800      18.20700      7.31200
  333     5     1      0.10003       3.59400      16.88500      8.40600
  334     5     1      0.10003       4.89400      16.14600      7.47800
  335     5     1      0.09754       4.19000      17.27800      5.45600
  336     5     1      0.09754       2.64900      16.82800      6.17800
  337     5     1      0.08960       3.15400      19.43000      5.53100
  338     5     1      0.08960       2.29100      19.04000      7.01000
  339     5     1      0.09626       5.02500      20.14100      6.77400
  340     5     1      0.09626       3.95700      20.09500      8.16100
  341     5     1      0.08693       9.45500      17.59500     12.22600
  342     5     1      0.08693       9.54200      16.09800     13.08400
  343     5     1      0.09003       7.93700      16.84500     14.76700
  344     5     1      0.09003       7.57200      18.30100     13.89600
  345     5     1      0.07960       9.38700      18.10000     15.94600
  346     5     1      0.07960      10.47200      17.85700     14.62000
  347     5     1      0.09861      10.48800      20.17200     15.22500
  348     5     1      0.10074       8.69300      21.01400     16.29700
  349     5     1      0.10074       7.53400      19.99000     15.48200
  350     5     1      0.09209       7.14700      21.52100     13.82000
  351     5     1      0.09209       7.93800      22.71000     14.84300
  352     5     1      0.09704      10.03300      22.42500     13.71100
  353     5     1      0.09704       8.92700      22.18300     12.36200
  354     5     1      0.10403      10.71800      20.24700     12.86200
  355     5     1      0.10403       9.04000      19.79200     12.59700
  356     6     2     -0.09839      25.85600      17.94100     17.01600
  357     6     2     -0.16798      27.30000      17.53300     17.39600
  358     6     2     -0.17019      28.39800      17.85500     16.36100
  359     6     2     -0.16647      28.55700      19.34700     15.99800
  360     6     2     -0.11989      28.89200      20.26300     17.18900
  361     6     2     -0.18113      30.21200      19.92700     17.89300
  362     6     2     -0.20556      30.71900      21.23900     18.50900
  363     6     2     -0.19637      29.82600      22.35600     17.95300
  364     6     2     -0.18154      29.05500      21.73000     16.79100
  365     6     2     -0.15613      25.28600      17.14200     15.81700
  366     6     2     -0.18334      25.44300      17.84800     14.46000
  367     6     2     -0.19289      24.85300      17.02800     13.30300
  368     6     2     -0.12815      24.96000      17.74000     11.94400
  369     6     2     -0.18672      26.40300      17.96400     11.47400
  370     6     2     -0.19631      26.30200      18.05100      9.95300
  371     6     2     -0.19449      25.22300      17.03200      9.59000
  372     6     2     -0.18382      24.27900      16.96700     10.80000
  373     6     2     -0.17802      24.91900      17.86100     18.24200
  374     6     2     -0.15990      24.76000      16.44900     18.84400
  375     6     2     -0.15324      23.68400      16.37600     19.94800
  376     6     2     -0.11809      22.32500      15.78400     19.52100
  377     6     2     -0.19207      22.35600      14.28400     19.17100
  378     6     2     -0.20024      21.43000      14.09700     17.95900
  379     6     2     -0.20623      20.66600      15.41400     17.80900
  380     6     2     -0.18861      21.63600      16.46900     18.33500
  381     6     1      0.08603      25.86500      18.99800     16.74600
  382     6     1      0.08394      27.57000      18.00200     18.34200
  383     6     1      0.08394      27.33100      16.46100     17.59600
  384     6     1      0.08850      28.22000      17.27700     15.45500
  385     6     1      0.08850      29.34900      17.48400     16.74300
  386     6     1      0.09149      29.33900      19.43700     15.24300
  387     6     1      0.09149      27.65000      19.70900     15.51300
  388     6     1      0.10388      28.08600      20.21400     17.92300
  389     6     1      0.09927      30.94400      19.56400     17.16900
  390     6     1      0.09927      30.08700      19.14200     18.64100
  391     6     1      0.09467      30.66800      21.21200     19.59800
  392     6     1      0.09467      31.76500      21.40400     18.24200
  393     6     1      0.09372      30.39700      23.23600     17.64600
  394     6     1      0.09372      29.12500      22.68000     18.72400
  395     6     1      0.09152      28.09900      22.22600     16.61000
  396     6     1      0.09152      29.64600      21.81200     15.87800
  397     6     1      0.08349      24.22100      16.97000     15.97000
  398     6     1      0.08349      25.73700      16.14900     15.78100
  399     6     1      0.09859      24.95300      18.82300     14.50100
  400     6     1      0.09859      26.49400      18.04600     14.26000
  401     6     1      0.09413      25.34500      16.05600     13.25200
  402     6     1      0.09413      23.80100      16.82300     13.51200
  403     6     1      0.11083      24.47400      18.71500     12.01500
  404     6     1      0.10003      27.02800      17.11300     11.74900
  405     6     1      0.10003      26.85500      18.85600     11.91200