LAMMPS data file of the system for full atom style

    4950 atoms
    5148 bonds
   10692 angles
   17820 dihedrals

    2 atom types
    2 bond types
    3 angle types
    2 dihedral types

    0.000000    50.000000 xlo xhi
    0.000000    50.000000 ylo yhi
    0.000000    50.000000 zlo zhi

 Masses 

    1       1.0080
    2      12.0110

 Pair Coeffs 

    1       0.0300       2.5000
    2       0.0660       3.5000

 Bond Coeffs 

    1     268.0000        1.5290
    2     340.0000        1.0900

 Angle Coeffs 

    1      33.0000      107.8000
    2      37.5000      110.7000
    3      58.3500      112.7000

 Dihedral Coeffs 

    1       0.0000        0.0000       0.3000        0.0000
    2       0.8500       -0.2000       0.2000        0.0000

 Atoms 

    1     1     2     -0.11360      43.08900      30.81800     36.23200
    2     1     2     -0.09636      42.72000      31.12100     37.71100
    3     1     2     -0.17347      41.81600      32.37000     37.71700
    4     1     2     -0.18179      41.47800      32.84400     39.12200
    5     1     2     -0.04073      44.38000      30.02200     36.00800
    6     1     2     -0.17757      45.56200      30.85100     36.60400
    7     1     2     -0.17299      45.16200      31.82900     37.74700
    8     1     2     -0.08739      44.34200      29.75200     34.46000
    9     1     2     -0.20597      42.82600      29.69000     34.12400
   10     1     2     -0.19526      42.03900      30.13800     35.36400
   11     1     2     -0.10467      45.18700      30.66400     33.51200
   12     1     2     -0.23209      44.72300      32.13300     33.40900
   13     1     2     -0.14652      45.49500      30.05000     32.12100
   14     1     2     -0.16323      44.34400      29.97100     31.09700
   15     1     2     -0.16569      43.76700      28.55000     30.93700
   16     1     2     -0.12248      42.51300      28.45000     30.04400
   17     1     2     -0.24028      42.76700      28.94600     28.61100
   18     1     2     -0.23831      41.28800      29.13700     30.66700
   19     1     2     -0.23519      44.32800      28.61800     36.67800
   20     1     2     -0.11163      42.75400      33.19300     39.90900
   21     1     2     -0.04837      43.73200      31.98400     40.01300
   22     1     2     -0.16406      43.11800      30.92500     40.97700
   23     1     2     -0.16229      42.69800      31.47900     42.35400
   24     1     2     -0.16898      41.78500      32.70800     42.23400
   25     1     2     -0.08765      43.98800      31.30100     38.61300
   26     1     2     -0.24611      45.07800      32.45600     40.62000
   27     1     2     -0.16659      42.38000      33.77000     41.29400
   28     1     1      0.08770      43.25600      34.21900     41.76000
   29     1     1      0.08770      41.67100      34.59200     41.17500
   30     1     1      0.10995      43.26100      33.98300     39.35200
   31     1     1      0.08795      43.82100      30.10500     41.13000
   32     1     1      0.08795      42.24500      30.46600     40.51200
   33     1     1      0.08340      43.58000      31.73300     42.94200
   34     1     1      0.08340      42.18900      30.70000     42.92100
   35     1     1      0.08413      40.80400      32.39900     41.87500
   36     1     1      0.08413      41.61500      33.14100     43.22100
   37     1     1      0.08846      44.33600      30.31200     38.89200
   38     1     1      0.10965      42.15100      30.28300     38.11400
   39     1     1      0.08336      42.30300      33.19100     37.18800
   40     1     1      0.08336      40.89400      32.16300     37.17400
   41     1     1      0.09345      40.83300      33.72100     39.05600
   42     1     1      0.09345      40.89400      32.07700     39.62700
   43     1     1      0.11718      43.26500      31.78200     35.75700
   44     1     1      0.08874      46.06300      31.46600     35.86500
   45     1     1      0.08874      46.33600      30.17200     36.96300
   46     1     1      0.09500      44.87900      32.79600     37.33000
   47     1     1      0.09500      46.06400      32.00900     38.32700
   48     1     1      0.10763      44.75200      28.75500     34.29000
   49     1     1      0.10160      42.53000      28.67600     33.85400
   50     1     1      0.10160      42.56700      30.31800     33.27500
   51     1     1      0.10006      41.21700      30.80700     35.10900
   52     1     1      0.10006      41.61300      29.27700     35.88000
   53     1     1      0.06700      46.18600      30.69500     33.94500
   54     1     1      0.08190      43.69900      32.22800     33.04900
   55     1     1      0.08190      45.35800      32.69500     32.72500
   56     1     1      0.08190      44.77500      32.64200     34.36900
   57     1     1      0.07634      45.95400      29.06800     32.24200
   58     1     1      0.07634      46.28200      30.65700     31.67100
   59     1     1      0.08539      43.56700      30.69400     31.33300
   60     1     1      0.08539      44.73200      30.28600     30.12800
   61     1     1      0.08669      44.54500      27.90300     30.52700
   62     1     1      0.08669      43.54100      28.13100     31.91600
   63     1     1      0.09563      42.27200      27.38700     29.97100
   64     1     1      0.08173      42.94700      30.02100     28.57900
   65     1     1      0.08173      43.63200      28.45000     28.16800
   66     1     1      0.08173      41.91000      28.74000     27.96800
   67     1     1      0.08150      40.39100      28.94700     30.07600
   68     1     1      0.08150      41.09500      28.76600     31.67400
   69     1     1      0.08150      41.41100      30.21800     30.72900
   70     1     1      0.08555      45.27000      28.08600     36.54100
   71     1     1      0.08555      43.55300      27.98700     36.24200
   72     1     1      0.08555      44.12700      28.63100     37.74300
   73     1     1      0.08469      45.80900      31.64800     40.63700
   74     1     1      0.08469      44.98800      32.81100     41.64400
   75     1     1      0.08469      45.50400      33.28600     40.05800
   76     2     2     -0.11360      35.54900      36.02700     26.44900
   77     2     2     -0.09636      34.74200      36.14800     25.12700
   78     2     2     -0.17347      34.79600      37.62400     24.68400
   79     2     2     -0.18179      33.94100      37.90100     23.45700
   80     2     2     -0.04073      35.18300      34.84800     27.36000
   81     2     2     -0.17757      33.68200      35.00600     27.76300
   82     2     2     -0.17299      32.81500      35.81100     26.75200
   83     2     2     -0.08739      36.28500      34.93200     28.47600
   84     2     2     -0.20597      37.51500      35.54300     27.74800
   85     2     2     -0.19526      37.06800      36.00600     26.35400
   86     2     2     -0.10467      35.93000      35.60600     29.84200
   87     2     2     -0.23209      35.67000      37.12700     29.78800
   88     2     2     -0.14652      36.85600      35.21300     31.02300
   89     2     2     -0.16323      38.28100      35.80200     31.04800
   90     2     2     -0.16569      39.36700      34.78800     30.63600
   91     2     2     -0.12248      40.78800      35.37300     30.49400
   92     2     2     -0.24028      41.30000      36.00500     31.79800
   93     2     2     -0.23831      40.91100      36.34800     29.31300
   94     2     2     -0.23519      35.40100      33.47600     26.65800
   95     2     2     -0.11163      32.46500      37.55200     23.72200
   96     2     2     -0.04837      32.27700      36.06100     24.13400
   97     2     2     -0.16406      32.53400      35.16000     22.88900
   98     2     2     -0.16229      31.71600      35.54700     21.64000
   99     2     2     -0.16898      31.86300      37.03400     21.28300
  100     2     2     -0.08765      33.27200      35.62800     25.28100
  101     2     2     -0.24611      30.81500      35.83000     24.59400
  102     2     2     -0.16659      31.60300      37.93900     22.49900
  103     2     1      0.08770      30.54600      37.90200     22.76000
  104     2     1      0.08770      31.79000      38.98000     22.22600
  105     2     1      0.10995      32.14100      38.17100     24.56000
  106     2     1      0.08795      32.32900      34.11700     23.13100
  107     2     1      0.08795      33.59200      35.18800     22.62700
  108     2     1      0.08340      30.66300      35.30800     21.79000
  109     2     1      0.08340      32.03100      34.93600     20.79300
  110     2     1      0.08413      32.86200      37.21600     20.88900
  111     2     1      0.08413      31.17500      37.29100     20.47600
  112     2     1      0.08846      33.29400      34.54800     25.18000
  113     2     1      0.10965      35.22300      35.54100     24.36100
  114     2     1      0.08336      34.45400      38.27400     25.49100
  115     2     1      0.08336      35.82700      37.91200     24.47900
  116     2     1      0.09345      34.02900      38.95500     23.19200
  117     2     1      0.09345      34.33800      37.34300     22.61100
  118     2     1      0.11718      35.31600      36.91700     27.03300
  119     2     1      0.08874      33.54900      35.50700     28.71500
  120     2     1      0.08874      33.24200      34.01900     27.91100
  121     2     1      0.09500      32.84600      36.87300     26.99700
  122     2     1      0.09500      31.78500      35.49900     26.91300
  123     2     1      0.10763      36.54900      33.91000     28.75400
  124     2     1      0.10160      38.31100      34.80500     27.64600
  125     2     1      0.10160      37.94400      36.37900     28.29600
  126     2     1      0.10006      37.47900      36.98300     26.09500
  127     2     1      0.10006      37.39500      35.30000     25.59100
  128     2     1      0.06700      34.99300      35.15200     30.16000
  129     2     1      0.08190      36.52400      37.68900     29.41300
  130     2     1      0.08190      35.43700      37.51600     30.77900
  131     2     1      0.08190      34.82000      37.37000     29.15300
  132     2     1      0.07634      36.90000      34.12700     31.11400
  133     2     1      0.07634      36.36000      35.53600     31.93800
  134     2     1      0.08539      38.33500      36.71000     30.45200
  135     2     1      0.08539      38.49500      36.12600     32.06700
  136     2     1      0.08669      39.38900      33.98300     31.37300
  137     2     1      0.08669      39.08700      34.30500     29.70200
  138     2     1      0.09563      41.44700      34.53000     30.27200
  139     2     1      0.08173      40.74200      36.90400     32.06100
  140     2     1      0.08173      41.22100      35.30700     32.63300
  141     2     1      0.08173      42.35000      36.28800     31.71100
  142     2     1      0.08150      41.94700      36.65100     29.16100
  143     2     1      0.08150      40.56900      35.89000     28.38300
  144     2     1      0.08150      40.32800      37.25600     29.46800
  145     2     1      0.08555      35.09600      32.65500     27.30700
  146     2     1      0.08555      36.45100      33.30400     26.41800
  147     2     1      0.08555      34.86500      33.35300     25.72400
  148     2     1      0.08469      30.67000      34.81300     24.96000
  149     2     1      0.08469      30.08500      35.97800     23.80200
  150     2     1      0.08469      30.53000      36.51900     25.38900
  151     3     2     -0.11360      20.13500       9.91500     11.85600
  152     3     2     -0.09636      19.41300      10.98300     12.72300
  153     3     2     -0.17347      20.49400      11.91800     13.30300
  154     3     2     -0.18179      19.92600      12.94400     14.27100
  155     3     2     -0.04073      19.38700       8.59100     11.65300
  156     3     2     -0.17757      19.16100       7.95100     13.06000
  157     3     2     -0.17299      19.12300       8.96300     14.24000
  158     3     2     -0.08739      20.29900       7.84700     10.61400
  159     3     2     -0.20597      20.94500       8.99400      9.78600
  160     3     2     -0.19526      20.60800      10.32800     10.46900
  161     3     2     -0.10467      21.30300       6.76300     11.12600
  162     3     2     -0.23209      22.47300       7.29000     11.98600
  163     3     2     -0.14652      21.77900       5.75400     10.04900
  164     3     2     -0.16323      22.78400       6.25100      8.98900
  165     3     2     -0.16569      22.13900       6.50700      7.61200
  166     3     2     -0.12248      23.06900       7.15300      6.56500
  167     3     2     -0.24028      24.31500       6.30100      6.27400
  168     3     2     -0.23831      23.44900       8.59900      6.92300
  169     3     2     -0.23519      18.01900       8.79500     10.93800
  170     3     2     -0.11163      19.22600      12.25600     15.45600
  171     3     2     -0.04837      18.07200      11.31600     14.99500
  172     3     2     -0.16406      16.89300      12.18800     14.47100
  173     3     2     -0.16229      16.42100      13.28200     15.45200
  174     3     2     -0.16898      17.57900      14.16100     15.94600
  175     3     2     -0.08765      18.52500      10.33800     13.84100
  176     3     2     -0.24611      17.55700      10.49500     16.20500
  177     3     2     -0.16659      18.75000      13.31700     16.47600
  178     3     1      0.08770      18.45700      12.83400     17.40800
  179     3     1      0.08770      19.58000      13.97200     16.74700
  180     3     1      0.10995      19.97800      11.64100     15.95200
  181     3     1      0.08795      16.04100      11.55600     14.21800
  182     3     1      0.08795      17.17700      12.66900     13.53500
  183     3     1      0.08340      15.91400      12.83000     16.30500
  184     3     1      0.08340      15.66900      13.90600     14.96900
  185     3     1      0.08413      17.92000      14.80400     15.13400
  186     3     1      0.08413      17.22500      14.83500     16.72700
  187     3     1      0.08846      17.58100      10.05500     13.38700
  188     3     1      0.10965      18.75500      11.57200     12.08500
  189     3     1      0.08336      21.25400      11.33700     13.82900
  190     3     1      0.08336      21.01200      12.43200     12.49300
  191     3     1      0.09345      20.73700      13.57600     14.63600
  192     3     1      0.09345      19.24800      13.60500     13.73400
  193     3     1      0.11718      21.04300       9.64600     12.39500
  194     3     1      0.08874      19.92800       7.23100     13.32500
  195     3     1      0.08874      18.23700       7.37100     13.04900
  196     3     1      0.09500      20.12900       9.12100     14.63000
  197     3     1      0.09500      18.56700       8.48100     15.04100
  198     3     1      0.10763      19.64500       7.29200      9.93900
  199     3     1      0.10160      20.55900       9.00200      8.76700
  200     3     1      0.10160      22.02300       8.88400      9.70200
  201     3     1      0.10006      21.46800      10.99700     10.50900
  202     3     1      0.10006      19.81400      10.84600      9.93100
  203     3     1      0.06700      20.72400       6.10900     11.77600
  204     3     1      0.08190      23.09000       8.01600     11.46000
  205     3     1      0.08190      23.12600       6.47400     12.29500
  206     3     1      0.08190      22.12100       7.76700     12.89900
  207     3     1      0.07634      20.91700       5.29800      9.56100
  208     3     1      0.07634      22.25400       4.92500     10.57600
  209     3     1      0.08539      23.32300       7.12400      9.34600
  210     3     1      0.08539      23.54800       5.48400      8.86200
  211     3     1      0.08669      21.77000       5.55800      7.21800
  212     3     1      0.08669      21.25100       7.12600      7.72900
  213     3     1      0.09563      22.49800       7.20400      5.63500
  214     3     1      0.08173      24.98500       6.25600      7.13200
  215     3     1      0.08173      24.04200       5.27900      6.01100
  216     3     1      0.08173      24.88400       6.71100      5.43800
  217     3     1      0.08150      24.00400       9.07100      6.11200
  218     3     1      0.08150      22.56300       9.20800      7.10600
  219     3     1      0.08150      24.07500       8.64900      7.81500
  220     3     1      0.08555      17.48600       7.84800     10.84200
  221     3     1      0.08555      18.14200       9.18300      9.92700
  222     3     1      0.08555      17.34500       9.48400     11.43500
  223     3     1      0.08469      16.79900       9.77300     15.89900
  224     3     1      0.08469      17.10200      11.10800     16.97900
  225     3     1      0.08469      18.36300       9.95100     16.69600
  226     4     2     -0.11360      42.47200      37.20900     36.95800
  227     4     2     -0.09636      43.43200      36.92700     35.76900
  228     4     2     -0.17347      44.61000      36.09200     36.31100
  229     4     2     -0.18179      45.68600      35.84700     35.26500
  230     4     2     -0.04073      41.57400      38.44400     36.82400
  231     4     2     -0.17757      42.50000      39.69500     36.68800
  232     4     2     -0.17299      43.91100      39.40200     36.10300
  233     4     2     -0.08739      40.64100      38.31800     38.08200
  234     4     2     -0.20597      40.53800      36.78600     38.32600
  235     4     2     -0.19526      41.54900      36.08500     37.40600
  236     4     2     -0.10467      40.96900      39.16400     39.35600
  237     4     2     -0.23209      42.26300      38.77300     40.10200
  238     4     2     -0.14652      39.77600      39.37200     40.32500
  239     4     2     -0.16323      39.32500      38.17100     41.18100
  240     4     2     -0.16569      38.02700      37.51300     40.67200
  241     4     2     -0.12248      37.62300      36.21500     41.40000
  242     4     2     -0.24028      37.40300      36.42500     42.90600
  243     4     2     -0.23831      38.59800      35.05800     41.13100
  244     4     2     -0.23519      40.62800      38.35000     35.59100
  245     4     2     -0.11163      46.26300      37.17500     34.74500
  246     4     2     -0.04837      45.16600      38.09200     34.12400
  247     4     2     -0.16406      44.69700      37.47000     32.77500
  248     4     2     -0.16229      45.83800      37.14600     31.78900
  249     4     2     -0.16898      46.94200      36.29400     32.43300
  250     4     2     -0.08765      43.91100      38.24500     35.07000
  251     4     2     -0.24611      45.76700      39.48900     33.82100
  252     4     2     -0.16659      47.42500      36.89900     33.76300
  253     4     1      0.08770      47.97400      37.81800     33.56600
  254     4     1      0.08770      48.15200      36.22900     34.22600
  255     4     1      0.10995      46.68200      37.69600     35.60700
  256     4     1      0.08795      43.98800      38.13500     32.28100
  257     4     1      0.08795      44.14000      36.55200     32.96600
  258     4     1      0.08340      46.26800      38.06700     31.39500
  259     4     1      0.08340      45.43400      36.62400     30.92200
  260     4     1      0.08413      46.57200      35.28200     32.59600
  261     4     1      0.08413      47.78200      36.19500     31.74500
  262     4     1      0.08846      43.13200      38.55300     34.38100
  263     4     1      0.10965      42.90500      36.33500     35.02100
  264     4     1      0.08336      45.07000      36.59500     37.16200
  265     4     1      0.08336      44.24400      35.13600     36.68500
  266     4     1      0.09345      46.48200      35.24600     35.70700
  267     4     1      0.09345      45.27000      35.24700     34.45700
  268     4     1      0.11718      43.10600      37.41300     37.82100
  269     4     1      0.08874      42.68100      40.19200     37.63500
  270     4     1      0.08874      42.00200      40.44800     36.07600
  271     4     1      0.09500      44.60400      39.15100     36.90600
  272     4     1      0.09500      44.27100      40.33900     35.68300
  273     4     1      0.10763      39.64800      38.66600     37.79100
  274     4     1      0.10160      39.53500      36.42400     38.10300
  275     4     1      0.10160      40.73400      36.52100     39.36100
  276     4     1      0.10006      42.08700      35.28700     37.92100
  277     4     1      0.10006      41.04300      35.63800     36.54900
  278     4     1      0.06700      41.12300      40.18300     39.00200
  279     4     1      0.08190      42.25600      37.74000     40.44600
  280     4     1      0.08190      42.41300      39.40400     40.97700
  281     4     1      0.08190      43.14500      38.89800     39.47600
  282     4     1      0.07634      38.92500      39.78400     39.78200
  283     4     1      0.07634      40.06100      40.16800     41.01500
  284     4     1      0.08539      40.12800      37.44500     41.28300
  285     4     1      0.08539      39.14300      38.52800     42.19500
  286     4     1      0.08669      37.21300      38.23600     40.76000
  287     4     1      0.08669      38.10800      37.31200     39.60500
  288     4     1      0.09563      36.66000      35.91400     40.98000
  289     4     1      0.08173      38.33400      36.66000     43.42300
  290     4     1      0.08173      36.70300      37.24100     43.09400
  291     4     1      0.08173      36.98900      35.53000     43.37100
  292     4     1      0.08150      38.22600      34.12500     41.55500
  293     4     1      0.08150      38.73400      34.89400     40.06100
  294     4     1      0.08150      39.58100      35.24100     41.56600
  295     4     1      0.08555      40.02900      39.25600     35.49100
  296     4     1      0.08555      39.92300      37.52300     35.68100
  297     4     1      0.08555      41.13200      38.20100     34.64300
  298     4     1      0.08469      45.00400      40.17600     33.45400
  299     4     1      0.08469      46.54900      39.46700     33.06600
  300     4     1      0.08469      46.22400      39.93000     34.70500
  301     5     2     -0.11360      26.65700      20.32800     20.51500
  302     5     2     -0.09636      27.07300      19.03300     21.26600
  303     5     2     -0.17347      26.09900      18.84900     22.44700
  304     5     2     -0.18179      26.47000      17.67300     23.33800
  305     5     2     -0.04073      27.75700      21.01800     19.69800
  306     5     2     -0.17757      28.90200      21.41800     20.68200
  307     5     2     -0.17299      28.99300      20.54500     21.96700
  308     5     2     -0.08739      26.96000      22.14900     18.95400
  309     5     2     -0.20597      25.53400      21.55600     18.77700
  310     5     2     -0.19526      25.45200      20.25400     19.58800
  311     5     2     -0.10467      26.99900      23.60400     19.52600
  312     5     2     -0.23209      26.29200      23.80700     20.88400
  313     5     2     -0.14652      26.63400      24.71500     18.50700
  314     5     2     -0.16323      25.15400      24.86300     18.10000
  315     5     2     -0.16569      24.84800      24.30200     16.69700
  316     5     2     -0.12248      23.35400      24.28500     16.31200
  317     5     2     -0.24028      22.72200      25.68500     16.33200
  318     5     2     -0.23831      22.53900      23.28900     17.15000
  319     5     2     -0.23519      28.32000      20.09700     18.57700
  320     5     2     -0.11163      27.88100      17.85100     23.92600
  321     5     2     -0.04837      28.96800      18.00000     22.81900
  322     5     2     -0.16406      29.15600      16.62400     22.11300
  323     5     2     -0.16229      29.43100      15.44600     23.07100
  324     5     2     -0.16898      28.38600      15.35000     24.19300
  325     5     2     -0.08765      28.56900      19.07200     21.73100
  326     5     2     -0.24611      30.32000      18.39100     23.46800
  327     5     2     -0.16659      28.19400      16.69800     24.90800
  328     5     1      0.08770      29.08600      16.93300     25.48800
  329     5     1      0.08770      27.39300      16.61000     25.64500
  330     5     1      0.10995      27.86700      18.77700     24.50400
  331     5     1      0.08795      29.96900      16.68200     21.38900
  332     5     1      0.08795      28.26900      16.38700     21.52600
  333     5     1      0.08340      30.42700      15.53700     23.50400
  334     5     1      0.08340      29.44700      14.51300     22.50700
  335     5     1      0.08413      27.43800      15.00900     23.77900
  336     5     1      0.08413      28.68600      14.58800     24.91300
  337     5     1      0.08846      29.18300      18.78900     20.88300
  338     5     1      0.10965      26.96400      18.18200     20.59400
  339     5     1      0.08336      26.07600      19.74900     23.06300
  340     5     1      0.08336      25.08400      18.71200     22.07200
  341     5     1      0.09345      25.74100      17.59300     24.14400
  342     5     1      0.09345      26.38900      16.75100     22.76500
  343     5     1      0.11718      26.37900      21.05000     21.28100
  344     5     1      0.08874      28.81800      22.44000     21.03500
  345     5     1      0.08874      29.85700      21.38900     20.15600
  346     5     1      0.09500      28.36400      20.96800     22.75100
  347     5     1      0.09500      30.01500      20.63500     22.32800
  348     5     1      0.10763      27.39200      22.25400     17.95600
  349     5     1      0.10160      25.33000      21.34200     17.72800
  350     5     1      0.10160      24.75900      22.24500     19.10400
  351     5     1      0.10006      24.51300      20.17200     20.13700
  352     5     1      0.10006      25.52400      19.38700     18.93100
  353     5     1      0.06700      28.05100      23.82500     19.69900
  354     5     1      0.08190      25.23500      23.54600     20.85300
  355     5     1      0.08190      26.36000      24.84500     21.20600
  356     5     1      0.08190      26.74900      23.20900     21.67000
  357     5     1      0.07634      27.25800      24.62100     17.61700
  358     5     1      0.07634      26.94200      25.66500     18.94600
  359     5     1      0.08539      24.50100      24.43200     18.85400
  360     5     1      0.08539      24.90900      25.92600     18.09600
  361     5     1      0.08669      25.39600      24.89100     15.96000
  362     5     1      0.08669      25.25000      23.29500     16.60600
  363     5     1      0.09563      23.30800      23.93300     15.27800
  364     5     1      0.08173      22.66000      26.08800     17.34300
  365     5     1      0.08173      23.29800      26.38800     15.72800
  366     5     1      0.08173      21.70900      25.66400     15.92700
  367     5     1      0.08150      21.51700      23.20700     16.77800
  368     5     1      0.08150      22.97500      22.29000     17.11500
  369     5     1      0.08150      22.47800      23.58700     18.19700
  370     5     1      0.08555      29.12800      20.59100     18.03600
  371     5     1      0.08555      27.56100      19.84700     17.83500
  372     5     1      0.08555      28.71100      19.14600     18.92400
  373     5     1      0.08469      31.08400      18.57500     22.71200
  374     5     1      0.08469      30.72000      17.62400     24.12700
  375     5     1      0.08469      30.22800      19.28600     24.08200
  376     6     2     -0.11360      37.34900      33.47300     20.69800
  377     6     2     -0.09636      37.34900      34.95600     21.16400
  378     6     2     -0.17347      36.66400      35.78800     20.06200
  379     6     2     -0.18179      36.70300      37.28200     20.34300
  380     6     2     -0.04073      38.43100      32.57300     21.30900
  381     6     2     -0.17757      39.82200      33.16700     20.91800
  382     6     2     -0.17299      39.82200      34.69600     20.63100
  383     6     2     -0.08739      38.02900      31.15400     20.76900
  384     6     2     -0.20597      36.48400      31.23000     20.61700
  385     6     2     -0.19526      36.05100      32.68900     20.82800
  386     6     2     -0.10467      38.78200      30.57400     19.52800
  387     6     2     -0.23209      38.53100      31.30700     18.19200
  388     6     2     -0.14652      38.69600      29.03300     19.37300
  389     6     2     -0.16323      37.35600      28.43000     18.90200
  390     6     2     -0.16569      36.55300      27.76600     20.03800
  391     6     2     -0.12248      35.13900      27.28900     19.64700
  392     6     2     -0.24028      35.15700      26.25600     18.50900
  393     6     2     -0.23831      34.18800      28.45400     19.33200
  394     6     2     -0.23519      38.31100      32.48100     22.85800
  395     6     2     -0.11163      38.15400      37.78300     20.46700
  396     6     2     -0.04837      38.93900      37.04300     21.59100
  397     6     2     -0.16406      38.39000      37.50600     22.97400
  398     6     2     -0.16229      38.35700      39.03500     23.17000
  399     6     2     -0.16898      37.63300      39.75500     22.02200
  400     6     2     -0.08765      38.79100      35.47400     21.49000
  401     6     2     -0.24611      40.43800      37.43300     21.52000
  402     6     2     -0.16659      38.17000      39.31800     20.64800
  403     6     1      0.08770      39.18100      39.70000     20.51400
  404     6     1      0.08770      37.58200      39.79200     19.85900
  405     6     1      0.10995      38.64500      37.56100     19.51800