LAMMPS data file of the system for full atom style

    4988 atoms
    5104 bonds
   10440 angles
   16704 dihedrals

    2 atom types
    2 bond types
    3 angle types
    2 dihedral types

    0.000000    50.000000 xlo xhi
    0.000000    50.000000 ylo yhi
    0.000000    50.000000 zlo zhi

 Masses 

    1       1.0080
    2      12.0110

 Pair Coeffs 

    1       0.0300       2.5000
    2       0.0660       3.5000

 Bond Coeffs 

    1     268.0000        1.5290
    2     340.0000        1.0900

 Angle Coeffs 

    1      33.0000      107.8000
    2      37.5000      110.7000
    3      58.3500      112.7000

 Dihedral Coeffs 

    1       0.0000        0.0000       0.3000        0.0000
    2       0.8500       -0.2000       0.2000        0.0000

 Atoms 

    1     1     2     -0.17550      19.77900      23.08100     33.73700
    2     1     2     -0.08700      21.02000      23.56100     34.53700
    3     1     2     -0.17378      18.80300      24.21700     33.37700
    4     1     2     -0.19226      17.66900      23.78000     32.43500
    5     1     2     -0.18113      16.69500      22.76900     33.06400
    6     1     2     -0.18613      15.50800      22.45300     32.14100
    7     1     2     -0.18734      14.57900      21.35600     32.68800
    8     1     2     -0.18016      13.81900      21.77100     33.96100
    9     1     2     -0.17927      12.74700      20.75800     34.39400
   10     1     2     -0.18778      13.32600      19.41600     34.87100
   11     1     2     -0.24460      12.24100      18.46600     35.39500
   12     1     2     -0.17070      22.26900      23.66400     33.63200
   13     1     2     -0.18766      22.15100      24.70900     32.50900
   14     1     2     -0.19298      23.45300      24.85600     31.70600
   15     1     2     -0.11559      23.37700      25.93400     30.60800
   16     1     2     -0.17248      24.75200      26.17600     29.96100
   17     1     2     -0.17982      24.73100      27.36600     28.97800
   18     1     2     -0.18261      23.36900      27.55300     28.27800
   19     1     2     -0.17317      22.61300      26.22400     28.15100
   20     1     2     -0.17020      22.31400      25.60100     29.53000
   21     1     2     -0.10394      21.22100      22.71400     35.83000
   22     1     2     -0.16190      22.04800      23.40000     36.95000
   23     1     2     -0.18169      23.55200      23.07500     36.95600
   24     1     2     -0.18198      23.81000      21.56700     36.85100
   25     1     2     -0.10003      23.15200      20.98600     35.58800
   26     1     2     -0.09362      21.61800      21.22500     35.60600
   27     1     2     -0.17015      20.90200      20.30300     36.62600
   28     1     2     -0.17707      21.50800      18.89000     36.74700
   29     1     2     -0.17314      22.35400      18.52100     35.52600
   30     1     2     -0.16476      23.52700      19.50000     35.35400
   31     1     1      0.08265      24.33600      19.21000     36.02600
   32     1     1      0.08265      23.93300      19.38100     34.34800
   33     1     1      0.08920      23.57600      21.53600     34.75100
   34     1     1      0.09985      21.24900      20.92900     34.62300
   35     1     1      0.08466      19.85100      20.22300     36.34300
   36     1     1      0.08466      20.90400      20.76000     37.61700
   37     1     1      0.08720      22.13900      18.84500     37.63600
   38     1     1      0.08720      20.71700      18.15600     36.90500
   39     1     1      0.08841      21.72600      18.53000     34.63300
   40     1     1      0.08841      22.73100      17.50100     35.61900
   41     1     1      0.08809      20.21700      22.69500     36.25700
   42     1     1      0.08546      21.89900      24.48000     36.93200
   43     1     1      0.08546      21.64500      23.07400     37.91000
   44     1     1      0.08972      24.00000      23.45900     37.87300
   45     1     1      0.08972      24.06100      23.59300     36.14700
   46     1     1      0.09674      24.88600      21.39000     36.83000
   47     1     1      0.09674      23.43400      21.05900     37.74000
   48     1     1      0.08987      20.80400      24.57100     34.88700
   49     1     1      0.08992      20.09600      22.56100     32.83100
   50     1     1      0.08992      19.23100      22.33100     34.30700
   51     1     1      0.09268      18.38200      24.64300     34.28900
   52     1     1      0.09268      19.35000      25.02900     32.89700
   53     1     1      0.08606      17.11000      24.66800     32.13400
   54     1     1      0.08606      18.09100      23.36900     31.51700
   55     1     1      0.10355      16.33100      23.16500     34.01300
   56     1     1      0.10355      17.22200      21.84300     33.29700
   57     1     1      0.09059      15.89000      22.12800     31.17200
   58     1     1      0.09059      14.93400      23.36000     31.94500
   59     1     1      0.08576      13.85600      21.09900     31.91300
   60     1     1      0.08576      15.15800      20.44900     32.87000
   61     1     1      0.09027      13.33500      22.73200     33.78600
   62     1     1      0.09027      14.51700      21.93300     34.78400
   63     1     1      0.08959      12.04400      20.59200     33.57600
   64     1     1      0.08959      12.16400      21.19900     35.20400
   65     1     1      0.09211      13.86000      18.92700     34.05600
   66     1     1      0.09211      14.06100      19.59000     35.65900
   67     1     1      0.08332      11.50600      18.23900     34.62000
   68     1     1      0.08332      11.71000      18.89800     36.24400
   69     1     1      0.08332      12.67600      17.52200     35.72400
   70     1     1      0.08788      22.48800      22.69300     33.18900
   71     1     1      0.08788      23.13200      23.92600     34.23900
   72     1     1      0.10052      21.87700      25.67500     32.93700
   73     1     1      0.10052      21.34200      24.42700     31.83500
   74     1     1      0.09328      24.26200      25.10900     32.39500
   75     1     1      0.09328      23.72600      23.89700     31.26400
   76     1     1      0.09911      23.08800      26.87300     31.08500
   77     1     1      0.08797      25.05800      25.27400     29.43000
   78     1     1      0.08797      25.51600      26.34900     30.72100
   79     1     1      0.08530      25.51600      27.22100     28.23500
   80     1     1      0.08530      24.98600      28.28700     29.50400
   81     1     1      0.08653      22.75800      28.25200     28.85200
   82     1     1      0.08653      23.51200      28.01100     27.29900
   83     1     1      0.09078      21.68300      26.36200     27.59500
   84     1     1      0.09078      23.21600      25.53100     27.56200
   85     1     1      0.08856      22.22100      24.52100     29.40500
   86     1     1      0.08856      21.34000      25.94400     29.88100
   87     2     2     -0.17550       9.15300      28.85300     29.91600
   88     2     2     -0.08700      10.37500      29.07300     30.84800
   89     2     2     -0.17378       8.38600      30.14800     29.59200
   90     2     2     -0.19226       7.28700      29.96700     28.53100
   91     2     2     -0.18113       6.12800      29.06600     28.98900
   92     2     2     -0.18613       4.99300      29.00900     27.95400
   93     2     2     -0.18734       3.87100      28.02400     28.32600
   94     2     2     -0.18016       3.07000      28.44300     29.57200
   95     2     2     -0.17927       1.83000      27.57200     29.82700
   96     2     2     -0.18778       2.16600      26.12400     30.21800
   97     2     2     -0.24460       0.91400      25.30900     30.56800
   98     2     2     -0.17070      11.70100      29.06000     30.05200
   99     2     2     -0.18766      11.83200      30.19900     29.02600
  100     2     2     -0.19298      13.20800      30.21300     28.34000
  101     2     2     -0.11559      13.38400      31.37600     27.34500
  102     2     2     -0.17248      14.83100      31.45900     26.82800
  103     2     2     -0.17982      15.06700      32.71500     25.96200
  104     2     2     -0.18261      13.81300      33.16200     25.18300
  105     2     2     -0.17317      12.88700      31.97800     24.87500
  106     2     2     -0.17020      12.38300      31.29600     26.16400
  107     2     2     -0.10394      10.33900      28.10300     32.06700
  108     2     2     -0.16190      11.15400      28.56200     33.30500
  109     2     2     -0.18169      12.58900      28.01500     33.39300
  110     2     2     -0.18198      12.63600      26.49900     33.16700
  111     2     2     -0.10003      12.01400      26.12900     31.80900
  112     2     2     -0.09362      10.53500      26.59400     31.73500
  113     2     2     -0.17015       9.60800      25.71100     32.60800
  114     2     2     -0.17707       9.99100      24.21800     32.64100
  115     2     2     -0.17314      10.87800      23.82600     31.45700
  116     2     2     -0.16476      12.19100      24.62800     31.46600
  117     2     1      0.08265      12.88800      24.16500     32.16500
  118     2     1      0.08265      12.66200      24.53100     30.48600
  119     2     1      0.08920      12.58400      26.67500     31.06100
  120     2     1      0.09985      10.21500      26.43900     30.70300
  121     2     1      0.08466       8.58500      25.81400     32.24100
  122     2     1      0.08466       9.58800      26.08000     33.63400
  123     2     1      0.08720      10.52900      24.00600     33.56600
  124     2     1      0.08720       9.09200      23.60200     32.67000
  125     2     1      0.08841      10.34000      24.00200     30.52500
  126     2     1      0.08841      11.09600      22.75600     31.48200
  127     2     1      0.08809       9.30800      28.20100     32.41400
  128     2     1      0.08546      11.16400      29.65100     33.37700
  129     2     1      0.08546      10.62600      28.22400     34.19800
  130     2     1      0.08972      13.00600      28.25100     34.37200
  131     2     1      0.08972      13.23700      28.51400     32.67500
  132     2     1      0.09674      13.67300      26.16400     33.20900
  133     2     1      0.09674      12.11500      25.98300     33.97300
  134     2     1      0.08987      10.27700      30.07200     31.27400
  135     2     1      0.08992       9.47000      28.36600     28.99200
  136     2     1      0.08992       8.45500      28.15000     30.37000
  137     2     1      0.09268       7.95300      30.55800     30.50600
  138     2     1      0.09268       9.08400      30.90600     29.23300
  139     2     1      0.08606       6.89100      30.95000     28.27500
  140     2     1      0.08606       7.72500      29.57200     27.61300
  141     2     1      0.10355       5.74300      29.43400     29.94100
  142     2     1      0.10355       6.49300      28.05500     29.17300
  143     2     1      0.09059       5.40700      28.71000     26.99000
  144     2     1      0.09059       4.57400      30.00500     27.80200
  145     2     1      0.08576       3.18900      27.94300     27.47800
  146     2     1      0.08576       4.29500      27.02900     28.46400
  147     2     1      0.09027       2.74600      29.47800     29.45200
  148     2     1      0.09027       3.70900      28.43100     30.45600
  149     2     1      0.08959       1.18500      27.58200     28.94700
  150     2     1      0.08959       1.24700      28.02900     30.62800
  151     2     1      0.09211       2.69300      25.62800     29.40300
  152     2     1      0.09211       2.84600      26.12000     31.07100
  153     2     1      0.08332       0.22500      25.26000     29.72300
  154     2     1      0.08332       0.37800      25.74600     31.41200
  155     2     1      0.08332       1.17800      24.28700     30.83900
  156     2     1      0.08788      11.81600      28.10600     29.53800
  157     2     1      0.08788      12.53500      29.13800     30.74300
  158     2     1      0.10052      11.66400      31.15700     29.52100
  159     2     1      0.10052      11.05400      30.09800     28.27000
  160     2     1      0.09328      13.98100      30.28400     29.10700
  161     2     1      0.09328      13.37700      29.26300     27.83200
  162     2     1      0.09911      13.19300      32.30600     27.88500
  163     2     1      0.08797      15.04900      30.56800     26.23800
  164     2     1      0.08797      15.54200      31.45300     27.65600
  165     2     1      0.08530      15.88500      32.51400     25.26900
  166     2     1      0.08530      15.40500      33.54100     26.58900
  167     2     1      0.08653      13.26100      33.89600     25.77300
  168     2     1      0.08653      14.10600      33.67200     24.26400
  169     2     1      0.09078      12.04000      32.29900     24.26800
  170     2     1      0.09078      13.43400      31.25200     24.27100
  171     2     1      0.08856      12.14600      30.25700     25.93200
  172     2     1      0.08856      11.44100      31.75200     26.47200
  173     3     2     -0.17550       8.78000      39.61600     30.59300
  174     3     2     -0.08700       7.79800      38.41900     30.70400
  175     3     2     -0.17378      10.22900      39.19500     30.28300
  176     3     2     -0.19226      11.16800      40.37900     29.99500
  177     3     2     -0.18113      11.40000      41.29400     31.20900
  178     3     2     -0.18613      12.43800      42.39100     30.92100
  179     3     2     -0.18734      12.60600      43.39500     32.07300
  180     3     2     -0.18016      13.22100      42.78000     33.34300
  181     3     2     -0.17927      13.57300      43.81800     34.42000
  182     3     2     -0.18778      12.34500      44.50300     35.04000
  183     3     2     -0.24460      12.72200      45.45400     36.18300
  184     3     2     -0.17070       6.94500      38.26900     29.42400
  185     3     2     -0.18766       7.75600      37.94100     28.15900
  186     3     2     -0.19298       6.85900      37.69100     26.93600
  187     3     2     -0.11559       7.64500      37.31000     25.66700
  188     3     2     -0.17248       6.70200      36.88800     24.52600
  189     3     2     -0.17982       7.47400      36.34400     23.30600
  190     3     2     -0.18261       8.86100      36.99200     23.12400
  191     3     2     -0.17317       8.89600      38.41800     23.68900
  192     3     2     -0.17020       8.59700      38.44100     25.20300
  193     3     2     -0.10394       6.97900      38.48000     32.02900
  194     3     2     -0.16190       6.39100      37.12600     32.50800
  195     3     2     -0.18169       4.94500      36.84000     32.07000
  196     3     2     -0.18198       4.01900      38.03100     32.34300
  197     3     2     -0.10003       4.53900      39.29900     31.64500
  198     3     2     -0.09362       5.96600      39.65700     32.14200
  199     3     2     -0.17015       5.94800      40.23500     33.58000
  200     3     2     -0.17707       4.72800      41.12200     33.89800
  201     3     2     -0.17314       4.05200      41.64700     32.62900
  202     3     2     -0.16476       3.54800      40.48600     31.75500
  203     3     1      0.08265       2.59100      40.13700     32.14300
  204     3     1      0.08265       3.32900      40.87300     30.75800
  205     3     1      0.08920       4.59500      39.05600     30.58600
  206     3     1      0.09985       6.32300      40.46300     31.49800
  207     3     1      0.08466       6.86400      40.80800     33.73500
  208     3     1      0.08466       5.98200      39.42700     34.31300
  209     3     1      0.08720       4.00000      40.54200     34.46700
  210     3     1      0.08720       5.02600      41.94800     34.54600
  211     3     1      0.08841       4.76000      42.25800     32.06600
  212     3     1      0.08841       3.22200      42.30800     32.88500
  213     3     1      0.08809       7.75200      38.67900     32.77400
  214     3     1      0.08546       7.04100      36.29900     32.21700
  215     3     1      0.08546       6.40300      37.12500     33.60000
  216     3     1      0.08972       4.57400      35.96100     32.59900
  217     3     1      0.08972       4.90700      36.57900     31.01400
  218     3     1      0.09674       3.01600      37.79200     31.98900
  219     3     1      0.09674       3.93300      38.20100     33.41600
  220     3     1      0.08987       8.40300      37.51500     30.78300
  221     3     1      0.08992       8.42700      40.32100     29.83900
  222     3     1      0.08992       8.78500      40.18600     31.52200
  223     3     1      0.09268      10.62500      38.60200     31.10900
  224     3     1      0.09268      10.23900      38.53500     29.41500
  225     3     1      0.08606      12.12800      39.98400     29.66200
  226     3     1      0.08606      10.77800      40.96200     29.15900
  227     3     1      0.10355      11.72600      40.69000     32.05700
  228     3     1      0.10355      10.46100      41.76200     31.50600
  229     3     1      0.09059      12.13400      42.93900     30.02800
  230     3     1      0.09059      13.40100      41.94000     30.68000
  231     3     1      0.08576      13.24700      44.20900     31.72900
  232     3     1      0.08576      11.64200      43.85100     32.30000
  233     3     1      0.09027      14.13000      42.24200     33.07100
  234     3     1      0.09027      12.54700      42.03300     33.76700
  235     3     1      0.08959      14.24900      44.56700     34.00400
  236     3     1      0.08959      14.13500      43.31700     35.21000
  237     3     1      0.09211      11.80300      45.06400     34.27800
  238     3     1      0.09211      11.65200      43.74800     35.41600
  239     3     1      0.08332      13.38700      46.24700     35.83500
  240     3     1      0.08332      13.22700      44.92400     36.99100
  241     3     1      0.08332      11.83500      45.92800     36.60300
  242     3     1      0.08788       6.37300      39.18100     29.25000
  243     3     1      0.08788       6.21800      37.47400     29.56700
  244     3     1      0.10052       8.37500      37.06100     28.34000
  245     3     1      0.10052       8.43900      38.76200     27.94300
  246     3     1      0.09328       6.15900      36.88800     27.17300
  247     3     1      0.09328       6.24700      38.57300     26.74000
  248     3     1      0.09911       8.25500      36.43500     25.90600
  249     3     1      0.08797       6.10600      37.74900     24.22200
  250     3     1      0.08797       5.98900      36.13500     24.86800
  251     3     1      0.08530       6.86900      36.49800     22.41100
  252     3     1      0.08530       7.60000      35.26400     23.39700
  253     3     1      0.08653       9.61400      36.39200     23.63700
  254     3     1      0.08653       9.14000      36.98900     22.06900
  255     3     1      0.09078       9.86200      38.88700     23.49300
  256     3     1      0.09078       8.15600      39.02300     23.16400
  257     3     1      0.08856       8.18200      39.41800     25.45500
  258     3     1      0.08856       9.53100      38.36300     25.75900
  259     4     2     -0.17550      15.96800      11.27700     35.30300
  260     4     2     -0.08700      15.93500       9.90500     36.02800
  261     4     2     -0.17378      15.63900      12.46700     36.22400
  262     4     2     -0.19226      15.84400      13.83800     35.55900
  263     4     2     -0.18113      14.87700      14.11300     34.39600
  264     4     2     -0.18613      15.02800      15.53800     33.83900
  265     4     2     -0.18734      14.16000      15.80800     32.59800
  266     4     2     -0.18016      12.64800      15.79800     32.88900
  267     4     2     -0.17927      11.79100      16.26200     31.70000
  268     4     2     -0.18778      11.82500      15.29800     30.50400
  269     4     2     -0.24460      10.87900      15.73300     29.37700
  270     4     2     -0.17070      17.36100       9.40000     36.34700
  271     4     2     -0.18766      18.14200      10.29400     37.32500
  272     4     2     -0.19298      19.50900       9.69800     37.69900
  273     4     2     -0.11559      20.29000      10.54900     38.71800
  274     4     2     -0.17248      21.55800       9.82300     39.20300
  275     4     2     -0.17982      22.26300      10.58600     40.34400
  276     4     2     -0.18261      22.08900      12.11600     40.25400
  277     4     2     -0.17317      21.89900      12.57700     38.80300
  278     4     2     -0.17020      20.64000      11.95400     38.16500
  279     4     2     -0.10394      15.03800       8.88300     35.26400
  280     4     2     -0.16190      14.49500       7.70800     36.11900
  281     4     2     -0.18169      15.33700       6.42100     36.08600
  282     4     2     -0.18198      15.69600       6.01000     34.65400
  283     4     2     -0.10003      16.44100       7.14400     33.93000
  284     4     2     -0.09362      15.57000       8.42800     33.87300
  285     4     2     -0.17015      14.40900       8.29300     32.85500
  286     4     2     -0.17707      14.76000       7.49000     31.58600
  287     4     2     -0.17314      16.27100       7.40900     31.35700
  288     4     2     -0.16476      16.96900       6.71300     32.53800
  289     4     1      0.08265      16.87500       5.63200     32.42200
  290     4     1      0.08265      18.04000       6.91500     32.47500
  291     4     1      0.08920      17.32300       7.35300     34.53100
  292     4     1      0.09985      16.21500       9.22100     33.49000
  293     4     1      0.08466      14.08000       9.29400     32.57000
  294     4     1      0.08466      13.54400       7.82400     33.32600
  295     4     1      0.08720      14.36700       6.47700     31.68200
  296     4     1      0.08720      14.26200       7.92500     30.71900
  297     4     1      0.08841      16.67400       8.41500     31.22600
  298     4     1      0.08841      16.48800       6.87500     30.43000
  299     4     1      0.08809      14.13700       9.46500     35.06300
  300     4     1      0.08546      14.33600       8.02400     37.15100
  301     4     1      0.08546      13.50200       7.45300     35.74400
  302     4     1      0.08972      14.78300       5.61400     36.57000
  303     4     1      0.08972      16.24500       6.53900     36.67400
  304     4     1      0.09674      16.31500       5.11200     34.68400
  305     4     1      0.09674      14.79400       5.74100     34.10300
  306     4     1      0.08987      15.43700      10.06100     36.98600
  307     4     1      0.08992      16.94100      11.42800     34.83300
  308     4     1      0.08992      15.25900      11.28300     34.47500
  309     4     1      0.09268      14.61100      12.38100     36.58300
  310     4     1      0.09268      16.26600      12.42300     37.11500
  311     4     1      0.08606      15.71400      14.61100     36.31700
  312     4     1      0.08606      16.87600      13.92800     35.21500
  313     4     1      0.10355      13.85300      13.95600     34.73600
  314     4     1      0.10355      15.04900      13.39700     33.59200
  315     4     1      0.09059      16.07200      15.70400     33.57100
  316     4     1      0.09059      14.80000      16.26900     34.61500
  317     4     1      0.08576      14.43500      16.78200     32.19100
  318     4     1      0.08576      14.40200      15.08000     31.82200
  319     4     1      0.09027      12.44800      16.45500     33.73600
  320     4     1      0.09027      12.32800      14.80300     33.19900
  321     4     1      0.08959      12.10500      17.25900     31.38600
  322     4     1      0.08959      10.76000      16.36800     32.04000
  323     4     1      0.09211      12.83800      15.22700     30.10700
  324     4     1      0.09211      11.55200      14.29300     30.83200
  325     4     1      0.08332      11.14500      16.72100     28.99700
  326     4     1      0.08332       9.84400      15.77300     29.71900
  327     4     1      0.08332      10.92300      15.03500     28.54100
  328     4     1      0.08788      17.93300       9.29900     35.42500
  329     4     1      0.08788      17.30100       8.40600     36.78100
  330     4     1      0.10052      17.55300      10.44700     38.23000
  331     4     1      0.10052      18.28900      11.27800     36.87900
  332     4     1      0.09328      19.35300       8.70100     38.11600
  333     4     1      0.09328      20.10900       9.55500     36.79900
  334     4     1      0.09911      19.65400      10.68300     39.59500
  335     4     1      0.08797      22.24600       9.71200     38.36300
  336     4     1      0.08797      21.32400       8.81000     39.53500
  337     4     1      0.08530      23.32300      10.32900     40.33500
  338     4     1      0.08530      21.88300      10.24500     41.30800
  339     4     1      0.08653      21.21800      12.41800     40.83600
  340     4     1      0.08653      22.94500      12.61700     40.70800
  341     4     1      0.09078      21.84400      13.66500     38.74800
  342     4     1      0.09078      22.77800      12.29000     38.22400
  343     4     1      0.08856      20.78600      11.91500     37.08400
  344     4     1      0.08856      19.78700      12.61500     38.32400
  345     5     2     -0.17550      38.74800      39.64200     46.41900
  346     5     2     -0.08700      39.84300      40.58500     46.98500
  347     5     2     -0.17378      37.33200      40.24600     46.46800
  348     5     2     -0.19226      36.27200      39.39500     45.74800
  349     5     2     -0.18113      36.01400      38.03400     46.41500
  350     5     2     -0.18613      34.86400      37.26600     45.74300
  351     5     2     -0.18734      34.65800      35.85000     46.30800
  352     5     2     -0.18016      34.16900      35.83400     47.76800
  353     5     2     -0.17927      33.77300      34.43500     48.26700
  354     5     2     -0.18778      34.96000      33.46600     48.38800
  355     5     2     -0.24460      34.55100      32.11500     48.98700
  356     5     2     -0.17070      40.64300      41.26600     45.85100
  357     5     2     -0.18766      39.80500      42.19800     44.96000
  358     5     2     -0.19298      40.66000      42.93800     43.91800
  359     5     2     -0.11559      39.85100      43.91700     43.04600
  360     5     2     -0.17248      40.77300      44.76700     42.15200
  361     5     2     -0.17982      39.99700      45.86600     41.39700
  362     5     2     -0.18261      38.54700      45.46400     41.05800
  363     5     2     -0.17317      38.40500      43.94500     40.89800
  364     5     2     -0.17020      38.77500      43.19600     42.19500
  365     5     2     -0.10394      40.71800      39.85900     48.05300
  366     5     2     -0.16190      41.45400      40.79200     49.05200
  367     5     2     -0.18169      42.89800      41.16200     48.67000
  368     5     2     -0.18198      43.71800      39.92800     48.27700
  369     5     2     -0.10003      43.04600      39.17000     47.12000
  370     5     2     -0.09362      41.61900      38.70800     47.51700
  371     5     2     -0.17015      41.65300      37.52300     48.51600
  372     5     2     -0.17707      42.79700      36.51800     48.27800
  373     5     2     -0.17314      43.35700      36.61000     46.85600
  374     5     2     -0.16476      43.92500      38.01200     46.58000
  375     5     1      0.08265      44.92900      38.08000     46.99900
  376     5     1      0.08265      44.05600      38.12700     45.50200
  377     5     1      0.08920      42.96100      39.88500     46.30400
  378     5     1      0.09985      41.15500      38.32200     46.60800
  379     5     1      0.08466      40.69600      37.00100     48.46700
  380     5     1      0.08466      41.73200      37.89200     49.54000
  381     5     1      0.08720      43.60400      36.71800     48.98400
  382     5     1      0.08720      42.45500      35.50500     48.49200
  383     5     1      0.08841      42.56700      36.38000     46.13900
  384     5     1      0.08841      44.13200      35.85800     46.70200
  385     5     1      0.08809      39.96700      39.38200     48.68500
  386     5     1      0.08546      40.87200      41.69600     49.23500
  387     5     1      0.08546      41.49700      40.28100     50.01600
  388     5     1      0.08972      43.37600      41.66500     49.51200
  389     5     1      0.08972      42.90800      41.88500     47.85800
  390     5     1      0.09674      44.72100      40.24400     47.98800
  391     5     1      0.09674      43.84100      39.26900     49.13700
  392     5     1      0.08987      39.33100      41.38100     47.52800
  393     5     1      0.08992      38.99500      39.35400     45.39600
  394     5     1      0.08992      38.73500      38.70400     46.97400
  395     5     1      0.09268      37.03500      40.40500     47.50600
  396     5     1      0.09268      37.34200      41.23600     46.01000
  397     5     1      0.08606      35.33800      39.95800     45.72200
  398     5     1      0.08606      36.56300      39.25100     44.70600
  399     5     1      0.10355      35.79000      38.18800     47.47100
  400     5     1      0.10355      36.91900      37.42500     46.37700
  401     5     1      0.09059      35.07000      37.18400     44.67500
  402     5     1      0.09059      33.93700      37.83500     45.82500
  403     5     1      0.08576      33.92700      35.33400     45.68400
  404     5     1      0.08576      35.58600      35.28400     46.21200
  405     5     1      0.09027      33.30200      36.49000     47.85700