LAMMPS data file of the system for full atom style

    4980 atoms
    5146 bonds
    9462 angles
   14027 dihedrals
    1162 impropers

    5 atom types
    7 bond types
   11 angle types
    6 dihedral types
    1 improper types

    0.000000    50.000000 xlo xhi
    0.000000    50.000000 ylo yhi
    0.000000    50.000000 zlo zhi

 Masses 

    1       1.0080
    2       1.0080
    3      12.0110
    4      12.0110
    5      12.0110

 Pair Coeffs 

    1       0.0300       2.4200
    2       0.0300       2.5000
    3       0.0660       3.5000
    4       0.0700       3.5500
    5       0.0800       3.5000

 Bond Coeffs 

    1     268.0000        1.5290
    2     317.0000        1.5100
    3     340.0000        1.0900
    4     367.0000        1.0800
    5     469.0000        1.4000
    6     469.0000        1.4040
    7     520.0000        1.3700

 Angle Coeffs 

    1      33.0000      107.8000
    2      35.0000      109.5000
    3      35.0000      120.0000
    4      37.5000      110.7000
    5      58.3500      112.7000
    6      63.0000      114.0000
    7      63.0000      120.0000
    8      70.0000      120.0000
    9      70.0000      128.6000
   10      85.0000      117.3000
   11      85.0000      134.9000

 Dihedral Coeffs 

    1      -0.2500        0.0000       0.0000        0.0000
    2       0.0000        0.0000       0.0000        0.0000
    3       0.0000        0.0000       0.3000        0.0000
    4       0.0000        0.0000       0.4620        0.0000
    5       0.0000        7.2500       0.0000        0.0000
    6       0.8500       -0.2000       0.2000        0.0000

 Improper Coeffs 

    1       2.5000     -1     2

 Atoms 

    1     1     3     -0.18013      45.24400      35.04200     16.08500
    2     1     3     -0.14632      44.75600      35.40700     17.49500
    3     1     3     -0.17716      44.23500      35.36900     14.96800
    4     1     3     -0.18234      42.89100      34.61600     15.06100
    5     1     3     -0.18093      43.00000      33.07900     15.08100
    6     1     3     -0.18226      43.72800      32.46000     13.87400
    7     1     3     -0.18291      43.03700      32.73600     12.52800
    8     1     3     -0.17224      43.66100      31.97500     11.34700
    9     1     3     -0.16603      45.09300      32.43000     11.01000
   10     1     3     -0.16169      45.66600      31.77500      9.73800
   11     1     3     -0.17065      45.51700      32.61600      8.45700
   12     1     3     -0.23629      44.06700      32.84800      8.01200
   13     1     4     -0.06444      45.80300      35.16700     18.57100
   14     1     4     -0.12325      45.72800      33.92400     19.21300
   15     1     5     -0.03198      46.60500      33.52100     20.23500
   16     1     5     -0.02141      47.59700      34.44800     20.59200
   17     1     4     -0.11764      48.51100      34.08300     21.63500
   18     1     4     -0.13681      48.45000      32.84800     22.29600
   19     1     4     -0.13674      47.46500      31.92900     21.93300
   20     1     5     -0.02217      47.70100      35.69900     19.95200
   21     1     5     -0.03016      46.81600      36.09000     18.92800
   22     1     4     -0.12756      47.01400      37.36800     18.33700
   23     1     4     -0.13175      48.02600      38.25500     18.71900
   24     1     4     -0.13142      48.89800      37.87200     19.73700
   25     1     4     -0.12436      48.73400      36.61600     20.33800
   26     1     4     -0.13144      46.56700      32.27700     20.91800
   27     1     1      0.13648      45.80600      31.56200     20.64200
   28     1     1      0.14194      49.30200      34.71700     21.98800
   29     1     1      0.13377      49.15800      32.60900     23.07700
   30     1     1      0.14067      47.39500      30.97000     22.42500
   31     1     1      0.14619      44.95800      33.22900     18.91400
   32     1     2      0.10040      44.45000      36.45300     17.53000
   33     1     2      0.10040      43.85600      34.84200     17.73900
   34     1     2      0.09945      46.17100      35.58300     15.88500
   35     1     2      0.09945      45.51700      33.98700     16.05200
   36     1     2      0.09081      44.03900      36.44200     14.96600
   37     1     2      0.09081      44.69600      35.16100     14.00200
   38     1     2      0.08682      42.26000      34.92300     14.22600
   39     1     2      0.08682      42.35200      34.94500     15.95000
   40     1     2      0.08909      41.99500      32.65700     15.14600
   41     1     2      0.08909      43.49900      32.76400     15.99800
   42     1     2      0.09377      43.79000      31.38100     14.02700
   43     1     2      0.09377      44.76000      32.81000     13.85200
   44     1     2      0.08698      41.98500      32.45500     12.60500
   45     1     2      0.08698      43.04600      33.80600     12.31300
   46     1     2      0.09274      43.65100      30.90400     11.55100
   47     1     2      0.09274      43.01900      32.11100     10.47700
   48     1     2      0.08461      45.14100      33.51600     10.92500
   49     1     2      0.08461      45.74200      32.17100     11.84700
   50     1     2      0.08195      45.24500      30.78000      9.59600
   51     1     2      0.08195      46.73500      31.61400      9.89600
   52     1     2      0.08038      46.05100      32.11300      7.65000
   53     1     2      0.08038      46.01500      33.57800      8.58600
   54     1     2      0.08022      43.52400      31.90600      7.91900
   55     1     2      0.08022      43.53100      33.48500      8.71500
   56     1     2      0.08022      44.03600      33.34400      7.04200
   57     1     1      0.14176      46.35200      37.68000     17.54300
   58     1     1      0.14308      48.13000      39.21500     18.23600
   59     1     1      0.12857      49.69000      38.53300     20.05600
   60     1     1      0.14295      49.45800      36.41600     21.10400
   61     2     3     -0.18013      43.14300       6.78100     19.25500
   62     2     3     -0.14632      43.02100       8.03700     18.37800
   63     2     3     -0.17716      41.81000       6.04400     19.48200
   64     2     3     -0.18234      40.72800       6.86000     20.21800
   65     2     3     -0.18093      41.14000       7.40000     21.60100
   66     2     3     -0.18226      41.59600       6.33000     22.61000
   67     2     3     -0.18291      40.50500       5.30300     22.95500
   68     2     3     -0.17224      40.89900       4.34200     24.09000
   69     2     3     -0.16603      42.05200       3.39200     23.71800
   70     2     3     -0.16169      42.35200       2.33300     24.79600
   71     2     3     -0.17065      41.67400       0.96900     24.56500
   72     2     3     -0.23629      40.14200       0.99900     24.63300
   73     2     4     -0.06444      44.36100       8.69500     18.08600
   74     2     4     -0.12325      44.72300       9.72900     18.96100
   75     2     5     -0.03198      45.91900      10.45800     18.85100
   76     2     5     -0.02141      46.76800      10.08800     17.79500
   77     2     4     -0.11764      47.99700      10.80900     17.63900
   78     2     4     -0.13681      48.37700      11.85200     18.49700
   79     2     4     -0.13674      47.53200      12.21100     19.54800
   80     2     5     -0.02217      46.43200       9.04300     16.91100
   81     2     5     -0.03016      45.22900       8.32000     17.03400
   82     2     4     -0.12756      44.99000       7.27500     16.09900
   83     2     4     -0.13175      45.87200       6.93500     15.06800
   84     2     4     -0.13142      47.05900       7.65400     14.94200
   85     2     4     -0.12436      47.32900       8.68800     15.85100
   86     2     4     -0.13144      46.32800      11.51500     19.70600
   87     2     1      0.13648      45.67700      11.79900     20.52000
   88     2     1      0.14194      48.71400      10.61200     16.86600
   89     2     1      0.13377      49.31300      12.37100     18.34800
   90     2     1      0.14067      47.79900      13.00900     20.22300
   91     2     1      0.14619      44.05300       9.98900     19.76600
   92     2     2      0.10040      42.53700       7.79300     17.43200
   93     2     2      0.10040      42.36100       8.76400     18.85200
   94     2     2      0.09945      43.84600       6.09300     18.78200
   95     2     2      0.09945      43.59900       7.04300     20.21000
   96     2     2      0.09081      41.41300       5.71900     18.51900
   97     2     2      0.09081      42.00400       5.12400     20.03600
   98     2     2      0.08682      39.83400       6.24400     20.32200
   99     2     2      0.08682      40.41500       7.69600     19.59100
  100     2     2      0.08909      40.30200       7.95600     22.02600
  101     2     2      0.08909      41.93600       8.13600     21.47900
  102     2     2      0.09377      41.91300       6.83400     23.52500
  103     2     2      0.09377      42.48700       5.82800     22.23200
  104     2     2      0.08698      39.59800       5.83400     23.25000
  105     2     2      0.08698      40.23900       4.72400     22.07000
  106     2     2      0.09274      41.16100       4.91300     24.98100
  107     2     2      0.09274      40.01900       3.76200     24.36500
  108     2     2      0.08461      41.85700       2.90700     22.76100
  109     2     2      0.08461      42.95300       3.98700     23.56900
  110     2     2      0.08195      42.11300       2.71700     25.78900
  111     2     2      0.08195      43.42900       2.16000     24.80700
  112     2     2      0.08038      42.04100       0.27000     25.31800
  113     2     2      0.08038      41.98700       0.55900     23.60400
  114     2     2      0.08022      39.79300       1.44800     25.56400
  115     2     2      0.08022      39.71700       1.56000     23.80100
  116     2     2      0.08022      39.73300      -0.01100     24.58000
  117     2     1      0.14176      44.07900       6.70200     16.18400
  118     2     1      0.14308      45.63900       6.13100     14.38500
  119     2     1      0.12857      47.76200       7.41700     14.15700
  120     2     1      0.14295      48.26700       9.17400     15.67000
  121     3     3     -0.18013      11.03600      40.97700     21.47400
  122     3     3     -0.14632       9.58400      41.43800     21.67100
  123     3     3     -0.17716      11.61400      41.30400     20.08500
  124     3     3     -0.18234      10.88800      40.63400     18.90000
  125     3     3     -0.18093      10.81100      39.09600     18.96100
  126     3     3     -0.18226      12.17000      38.37800     19.06200
  127     3     3     -0.18291      13.09000      38.62600     17.85500
  128     3     3     -0.17224      14.37000      37.77400     17.87000
  129     3     3     -0.16603      15.33300      38.13000     19.01700
  130     3     3     -0.16169      16.67800      37.38200     18.94900
  131     3     3     -0.17065      17.81800      38.16600     18.27200
  132     3     3     -0.23629      17.59400      38.45600     16.78300
  133     3     4     -0.06444       9.06400      41.19300     23.07900
  134     3     4     -0.12325       8.37100      39.98800     23.26000
  135     3     5     -0.03198       7.81400      39.58800     24.48600
  136     3     5     -0.02141       7.99400      40.47400     25.56000
  137     3     4     -0.11764       7.43700      40.11000     26.83000
  138     3     4     -0.13681       6.73300      38.91400     27.03300
  139     3     4     -0.13674       6.56200      38.03500     25.96300
  140     3     5     -0.02217       8.70000      41.68400     25.40700
  141     3     5     -0.03016       9.25400      42.07300     24.17100
  142     3     4     -0.12756       9.95900      43.30700     24.12300
  143     3     4     -0.13175      10.12300      44.15300     25.22500
  144     3     4     -0.13142       9.56900      43.77300     26.44600
  145     3     4     -0.12436       8.87300      42.55900     26.52900
  146     3     4     -0.13144       7.10000      38.38300     24.71900
  147     3     1      0.13648       6.96200      37.69900     23.89400
  148     3     1      0.14194       7.51300      40.71500     27.71400
  149     3     1      0.13377       6.32900      38.67500     28.00600
  150     3     1      0.14067       6.02400      37.10800     26.09100
  151     3     1      0.14619       8.25100      39.32400     22.41800
  152     3     2      0.10040       9.49000      42.49900     21.44200
  153     3     2      0.10040       8.93100      40.93700     20.95600
  154     3     2      0.09945      11.66000      41.45400     22.23100
  155     3     2      0.09945      11.11300      39.90700     21.67400
  156     3     2      0.09081      11.60500      42.38500     19.93900
  157     3     2      0.09081      12.66800      41.02300     20.06400
  158     3     2      0.08682      11.37900      40.93400     17.97300
  159     3     2      0.08682       9.87800      41.03600     18.81900
  160     3     2      0.08909      10.28200      38.73400     18.07700
  161     3     2      0.08909      10.18800      38.79900     19.80600
  162     3     2      0.09377      11.98500      37.30600     19.15400
  163     3     2      0.09377      12.66800      38.66800     19.98700
  164     3     2      0.08698      12.53900      38.40900     16.93900
  165     3     2      0.08698      13.36100      39.68100     17.79800
  166     3     2      0.09274      14.10800      36.71600     17.92000
  167     3     2      0.09274      14.87500      37.90200     16.91300
  168     3     2      0.08461      15.50500      39.20600     19.05400
  169     3     2      0.08461      14.85100      37.87600     19.96200
  170     3     2      0.08195      16.55100      36.40600     18.48000
  171     3     2      0.08195      16.99600      37.16900     19.97200
  172     3     2      0.08038      18.74000      37.59400     18.38000
  173     3     2      0.08038      17.98800      39.10300     18.80400
  174     3     2      0.08022      17.37400      37.54400     16.22800
  175     3     2      0.08022      16.77300      39.15600     16.63200
  176     3     2      0.08022      18.48400      38.90500     16.34000
  177     3     1      0.14176      10.40000      43.61700     23.18800
  178     3     1      0.14308      10.66800      45.08100     25.13200
  179     3     1      0.12857       9.67800      44.40300     27.31700
  180     3     1      0.14295       8.49100      42.35700     27.51100
  181     4     3     -0.18013       8.23100      20.24000     36.99200
  182     4     3     -0.14632       9.15300      19.31100     36.18700
  183     4     3     -0.17716       7.55400      21.33500     36.14600
  184     4     3     -0.18234       8.51900      22.32800     35.46700
  185     4     3     -0.18093       9.47100      23.07600     36.42100
  186     4     3     -0.18226       8.77800      23.88200     37.53500
  187     4     3     -0.18291       7.86900      25.00600     37.00900
  188     4     3     -0.17224       7.31600      25.92100     38.11400
  189     4     3     -0.16603       6.33800      25.21100     39.06800
  190     4     3     -0.16169       5.67100      26.15600     40.08600
  191     4     3     -0.17065       4.28000      26.67100     39.67100
  192     4     3     -0.23629       4.27700      27.56700     38.42600
  193     4     4     -0.06444       9.73600      18.18000     37.02100
  194     4     4     -0.12325      11.00000      18.43100     37.57200
  195     4     5     -0.03198      11.70000      17.50800     38.36700
  196     4     5     -0.02141      11.05400      16.28300     38.59700
  197     4     4     -0.11764      11.73300      15.30700     39.39700
  198     4     4     -0.13681      13.00100      15.53400     39.95200
  199     4     4     -0.13674      13.63600      16.75500     39.72400
  200     4     5     -0.02217       9.77700      16.01200     38.06500
  201     4     5     -0.03016       9.08500      16.94700     37.27100
  202     4     4     -0.12756       7.79700      16.58200     36.79300
  203     4     4     -0.13175       7.18700      15.35100     37.05900
  204     4     4     -0.13142       7.87400      14.42300     37.83900
  205     4     4     -0.12436       9.14400      14.75300     38.33100
  206     4     4     -0.13144      12.98100      17.71300     38.94200
  207     4     1      0.13648      13.47900      18.65600     38.76700
  208     4     1      0.14194      11.33400      14.33900     39.63100
  209     4     1      0.13377      13.48100      14.77300     40.55100
  210     4     1      0.14067      14.61200      16.95700     40.13900
  211     4     1      0.14619      11.47000      19.38400     37.38200
  212     4     2      0.10040       8.61400      18.88200     35.34300
  213     4     2      0.10040       9.96700      19.88300     35.74100
  214     4     2      0.09945       7.45500      19.63800     37.46600
  215     4     2      0.09945       8.78900      20.68900     37.81500
  216     4     2      0.09081       6.93600      20.86400     35.38000
  217     4     2      0.09081       6.85600      21.88800     36.77600
  218     4     2      0.08682       7.93400      23.05300     34.89900
  219     4     2      0.08682       9.11100      21.80300     34.71600
  220     4     2      0.08909      10.10100      23.74700     35.83500
  221     4     2      0.08909      10.16100      22.36300     36.87500
  222     4     2      0.09377       9.54900      24.31800     38.17300
  223     4     2      0.09377       8.21500      23.20600     38.17900
  224     4     2      0.08698       8.43300      25.61700     36.30300
  225     4     2      0.08698       7.03800      24.58400     36.44200
  226     4     2      0.09274       8.14100      26.35200     38.68300
  227     4     2      0.09274       6.81800      26.76500     37.64000
  228     4     2      0.08461       5.57700      24.67000     38.50500
  229     4     2      0.08461       6.88900      24.45100     39.62300
  230     4     2      0.08195       6.33200      26.98900     40.32700
  231     4     2      0.08195       5.54700      25.60900     41.02200
  232     4     2      0.08038       3.85800      27.23400     40.50500
  233     4     2      0.08038       3.60600      25.82800     39.51300
  234     4     2      0.08022       4.97700      28.39600     38.53000
  235     4     2      0.08022       4.54100      27.00500     37.53000
  236     4     2      0.08022       3.28600      27.99000     38.25700
  237     4     1      0.14176       7.24700      17.29000     36.19200
  238     4     1      0.14308       6.20500      15.12600     36.66900
  239     4     1      0.12857       7.43100      13.46300     38.06300
  240     4     1      0.14295       9.58400      13.97300     38.92200
  241     5     3     -0.18013      36.26200      41.88200     15.14100
  242     5     3     -0.14632      34.90100      42.06200     14.45300
  243     5     3     -0.17716      37.46300      41.93800     14.17900
  244     5     3     -0.18234      37.48800      40.83900     13.09800
  245     5     3     -0.18093      37.45600      39.39300     13.63100
  246     5     3     -0.18226      38.59300      39.03000     14.60300
  247     5     3     -0.18291      39.99500      39.13300     13.97800
  248     5     3     -0.17224      41.11700      38.60500     14.88800
  249     5     3     -0.16603      41.32700      39.45000     16.15800
  250     5     3     -0.16169      42.54300      39.01100     16.99700
  251     5     3     -0.17065      43.83400      39.80600     16.72600
  252     5     3     -0.23629      44.40400      39.63400     15.31300
  253     5     4     -0.06444      33.73700      42.10000     15.43100
  254     5     4     -0.12325      33.10200      40.87000     15.65400
  255     5     5     -0.03198      32.00700      40.70500     16.51900
  256     5     5     -0.02141      31.56500      41.86400     17.17700
  257     5     4     -0.11764      30.44600      41.74500     18.06500
  258     5     4     -0.13681      29.79100      40.52600     18.29800
  259     5     4     -0.13674      30.23800      39.37800     17.64400
  260     5     5     -0.02217      32.19600      43.10900     16.98000
  261     5     5     -0.03016      33.29400      43.26000     16.11000
  262     5     4     -0.12756      33.86700      44.55500     15.99100
  263     5     4     -0.13175      33.39900      45.68100     16.67700
  264     5     4     -0.13142      32.30800      45.53400     17.53300
  265     5     4     -0.12436      31.72200      44.26800     17.67800
  266     5     4     -0.13144      31.32900      39.48400     16.77400
  267     5     1      0.13648      31.66900      38.59200     16.27000
  268     5     1      0.14194      30.02600      42.56500     18.61400
  269     5     1      0.13377      28.95100      40.47700     18.97600
  270     5     1      0.14067      29.75300      38.42600     17.80500
  271     5     1      0.14619      33.46600      39.99500     15.13800
  272     5     2      0.10040      34.89400      42.97900     13.86400
  273     5     2      0.10040      34.73600      41.26300     13.73000
  274     5     2      0.09945      36.38100      42.66400     15.89200
  275     5     2      0.09945      36.27000      40.94600     15.70100
  276     5     2      0.09081      37.48400      42.91400     13.69100
  277     5     2      0.09081      38.38500      41.89000     14.76000
  278     5     2      0.08682      38.37500      40.97600     12.47800
  279     5     2      0.08682      36.64900      40.98300     12.41500
  280     5     2      0.08909      37.47900      38.70500     12.78300
  281     5     2      0.08909      36.49800      39.20900     14.11900
  282     5     2      0.09377      38.43400      38.00800     14.95100
  283     5     2      0.09377      38.52600      39.65500     15.49300
  284     5     2      0.08698      40.01000      38.56800     13.04500
  285     5     2      0.08698      40.21100      40.16700     13.70400
  286     5     2      0.09274      40.91200      37.56900     15.16100
  287     5     2      0.09274      42.03900      38.57600     14.30900
  288     5     2      0.08461      41.40900      40.50800     15.90600
  289     5     2      0.08461      40.43700      39.36300     16.78000
  290     5     2      0.08195      42.72000      37.94100     16.88500
  291     5     2      0.08195      42.29200      39.15200     18.05000
  292     5     2      0.08038      44.59000      39.49100     17.44600
  293     5     2      0.08038      43.66300      40.86600     16.92200
  294     5     2      0.08022      44.54300      38.58100     15.06500
  295     5     2      0.08022      43.75100      40.07900     14.56200
  296     5     2      0.08022      45.37400      40.12400     15.22500
  297     5     1      0.14176      34.71600      44.68900     15.33700
  298     5     1      0.14308      33.87200      46.64300     16.54800
  299     5     1      0.12857      31.92200      46.38300     18.07800
  300     5     1      0.14295      30.89500      44.26100     18.36100
  301     6     3     -0.18013      21.18300       3.48000     21.90800
  302     6     3     -0.14632      19.73000       3.42800     22.40400
  303     6     3     -0.17716      21.89300       2.11400     21.90300
  304     6     3     -0.18234      22.03600       1.44700     23.28700
  305     6     3     -0.18093      22.77100       2.28800     24.34900
  306     6     3     -0.18226      24.19500       2.72900     23.96200
  307     6     3     -0.18291      25.16100       1.55500     23.72700
  308     6     3     -0.17224      26.62000       1.99100     23.51400
  309     6     3     -0.16603      26.84200       2.78400     22.21400
  310     6     3     -0.16169      28.32300       3.09500     21.92400
  311     6     3     -0.17065      29.01700       2.10100     20.97500
  312     6     3     -0.23629      29.14300       0.67500     21.52700
  313     6     4     -0.06444      19.01700       4.76900     22.30900
  314     6     4     -0.12325      19.05100       5.54800     23.47300
  315     6     5     -0.03198      18.44700       6.81200     23.58100
  316     6     5     -0.02141      17.79100       7.27900     22.43000
  317     6     4     -0.11764      17.15400       8.56100     22.49500
  318     6     4     -0.13681      17.16900       9.35500     23.65200
  319     6     4     -0.13674      17.82600       8.88800     24.79000
  320     6     5     -0.02217      17.75600       6.52000     21.24300
  321     6     5     -0.03016      18.36700       5.25400     21.14900
  322     6     4     -0.12756      18.28600       4.57400     19.90300
  323     6     4     -0.13175      17.63000       5.08500     18.77800
  324     6     4     -0.13142      17.01900       6.33400     18.87300
  325     6     4     -0.12436      17.08500       7.03400     20.08500
  326     6     4     -0.13144      18.44800       7.63600     24.73700
  327     6     1      0.13648      18.95400       7.27900     25.62200
  328     6     1      0.14194      16.62300       9.01000     21.67800
  329     6     1      0.13377      16.67700      10.31800     23.66100
  330     6     1      0.14067      17.85300       9.47900     25.69400
  331     6     1      0.14619      19.56600       5.16600     24.34100
  332     6     2      0.10040      19.16300       2.69000     21.83700
  333     6     2      0.10040      19.69700       3.07700     23.43500
  334     6     2      0.09945      21.19200       3.88000     20.89200
  335     6     2      0.09945      21.74900       4.19900     22.50200
  336     6     2      0.09081      21.35700       1.43500     21.23800
  337     6     2      0.09081      22.88100       2.22900     21.45700
  338     6     2      0.08682      22.54900       0.49200     23.16400
  339     6     2      0.08682      21.04800       1.18200     23.66600
  340     6     2      0.08909      22.81500       1.72000     25.28000
  341     6     2      0.08909      22.17600       3.17200     24.58400
  342     6     2      0.09377      24.58800       3.35900     24.76200
  343     6     2      0.09377      24.15200       3.37000     23.08100
  344     6     2      0.08698      25.12100       0.88500     24.58700
  345     6     2      0.08698      24.83400       0.96300     22.87100
  346     6     2      0.09274      26.95800       2.57900     24.36900
  347     6     2      0.09274      27.24500       1.09900     23.51100
  348     6     2      0.08461      26.39700       2.26300     21.36500
  349     6     2      0.08461      26.30600       3.73000     22.29200
  350     6     2      0.08195      28.88300       3.19400     22.85400
  351     6     2      0.08195      28.37400       4.08000     21.45400
  352     6     2      0.08038      30.01700       2.47700     20.75300
  353     6     2      0.08038      28.49300       2.07500     20.01900
  354     6     2      0.08022      29.62200       0.66800     22.50700
  355     6     2      0.08022      28.16800       0.19500     21.61800
  356     6     2      0.08022      29.74400       0.05500     20.86100
  357     6     1      0.14176      18.75700       3.60700     19.80800
  358     6     1      0.14308      17.59800       4.52400     17.85500
  359     6     1      0.12857      16.50500       6.75700     18.02200
  360     6     1      0.14295      16.58900       7.98500     20.05200
  361     7     3     -0.18013      17.94000      17.40700     37.48400
  362     7     3     -0.14632      16.70600      16.74500     38.11900
  363     7     3     -0.17716      18.83000      18.16300     38.48800
  364     7     3     -0.18234      18.14800      19.34700     39.20500
  365     7     3     -0.18093      17.56400      20.42900     38.27600
  366     7     3     -0.18226      18.57300      21.07100     37.30600
  367     7     3     -0.18291      19.72300      21.81000     38.01100
  368     7     3     -0.17224      20.63100      22.59700     37.05200
  369     7     3     -0.16603      21.43700      21.70100     36.09300
  370     7     3     -0.16169      22.45400      22.47400     35.23200
  371     7     3     -0.17065      23.88800      22.49600     35.79300
  372     7     3     -0.23629      24.04100      23.24000     37.12600
  373     7     4     -0.06444      15.89400      15.92400     37.13000
  374     7     4     -0.12325      14.82400      16.60000     36.52600
  375     7     5     -0.03198      13.95900      16.00900     35.59000
  376     7     5     -0.02141      14.22400      14.66700     35.27200
  377     7     4     -0.11764      13.36300      14.02000     34.32600
  378     7     4     -0.13681      12.28300      14.67500     33.71500
  379     7     4     -0.13674      12.02700      16.00900     34.03300
  380     7     5     -0.02217      15.30200      13.97000     35.85500
  381     7     5     -0.03016      16.16300      14.57600     36.79100
  382     7     4     -0.12756      17.22800      13.79200     37.31100
  383     7     4     -0.13175      17.46100      12.45900     36.95400
  384     7     4     -0.13142      16.60500      11.85700     36.03300
  385     7     4     -0.12436      15.54700      12.60400     35.49600
  386     7     4     -0.13144      12.86100      16.64800     34.95700
  387     7     1      0.13648      12.65700      17.68100     35.19900
  388     7     1      0.14194      13.47300      12.99900     34.01500
  389     7     1      0.13377      11.65600      14.15200     33.00600
  390     7     1      0.14067      11.20300      16.53700     33.57700
  391     7     1      0.14619      14.64700      17.63200     36.78700
  392     7     2      0.10040      17.00600      16.10200     38.94600
  393     7     2      0.10040      16.06400      17.50200     38.56900