LAMMPS data file of the system for full atom style

    4970 atoms
    5110 bonds
   10500 angles
   17010 dihedrals

    2 atom types
    2 bond types
    3 angle types
    2 dihedral types

    0.000000    50.000000 xlo xhi
    0.000000    50.000000 ylo yhi
    0.000000    50.000000 zlo zhi

 Masses 

    1       1.0080
    2      12.0110

 Pair Coeffs 

    1       0.0300       2.5000
    2       0.0660       3.5000

 Bond Coeffs 

    1     268.0000        1.5290
    2     340.0000        1.0900

 Angle Coeffs 

    1      33.0000      107.8000
    2      37.5000      110.7000
    3      58.3500      112.7000

 Dihedral Coeffs 

    1       0.0000        0.0000       0.3000        0.0000
    2       0.8500       -0.2000       0.2000        0.0000

 Atoms 

    1     1     2     -0.09537      40.21200      37.32200     39.84200
    2     1     2     -0.17494      40.04500      36.92500     38.35600
    3     1     2     -0.16825      40.58800      38.81800     39.99800
    4     1     2     -0.16320      41.87100      39.26000     39.26300
    5     1     2     -0.16790      41.60200      39.97300     37.92300
    6     1     2     -0.13377      42.88000      40.23800     37.10900
    7     1     2     -0.18575      43.58100      38.94500     36.64500
    8     1     2     -0.19571      44.06100      39.21500     35.22100
    9     1     2     -0.19229      43.00100      40.15100     34.65000
   10     1     2     -0.18248      42.60700      41.04700     35.82600
   11     1     2     -0.20100      38.94700      36.97300     40.66300
   12     1     2     -0.19998      39.07700      37.20100     42.18000
   13     1     2     -0.17443      37.87500      36.64000     42.95900
   14     1     2     -0.13316      38.00000      36.80600     44.48800
   15     1     2     -0.19089      37.78600      38.25200     44.95700
   16     1     2     -0.18849      36.27200      38.41400     45.14000
   17     1     2     -0.18066      35.70100      36.99700     45.29100
   18     1     2     -0.18988      36.90000      36.04500     45.23300
   19     1     2     -0.18978      39.89000      35.41400     38.09200
   20     1     2     -0.11633      39.88200      35.04800     36.59200
   21     1     2     -0.17877      41.20600      35.44200     35.88700
   22     1     2     -0.18617      41.50600      34.56100     34.66600
   23     1     2     -0.17635      41.66500      33.07800     35.05800
   24     1     2     -0.17555      40.79900      32.68100     36.27100
   25     1     2     -0.17854      39.54000      33.55200     36.38100
   26     1     1      0.09835      39.07300      35.61400     36.12600
   27     1     1      0.10049      41.17100      36.49100     35.58700
   28     1     1      0.10049      42.04100      35.35600     36.58400
   29     1     1      0.09209      40.69000      34.66300     33.94900
   30     1     1      0.09209      42.40300      34.90900     34.15100
   31     1     1      0.08717      42.71100      32.86100     35.28400
   32     1     1      0.08717      41.41200      32.45600     34.19800
   33     1     1      0.08633      40.53200      31.62500     36.20800
   34     1     1      0.08633      41.38200      32.78900     37.18600
   35     1     1      0.08570      38.89000      33.18200     37.17500
   36     1     1      0.08570      38.96300      33.44100     35.46100
   37     1     1      0.09397      40.68900      34.86700     38.59700
   38     1     1      0.09397      38.95800      35.06500     38.53300
   39     1     1      0.09756      40.93100      37.24900     37.81700
   40     1     1      0.09756      39.20700      37.46800     37.91500
   41     1     1      0.09149      41.04000      36.73500     40.24300
   42     1     1      0.08249      40.75700      39.02200     41.05500
   43     1     1      0.08249      39.74900      39.45600     39.71300
   44     1     1      0.08556      42.53100      38.40300     39.12900
   45     1     1      0.08556      42.42400      39.94900     39.90300
   46     1     1      0.09927      41.10600      40.92300     38.13100
   47     1     1      0.09927      40.89600      39.40900     37.31300
   48     1     1      0.10228      43.57500      40.81100     37.72500
   49     1     1      0.09537      42.87300      38.11400     36.62500
   50     1     1      0.09537      44.39500      38.65300     37.30800
   51     1     1      0.09687      45.02900      39.72000     35.24500
   52     1     1      0.09687      44.17900      38.30100     34.63500
   53     1     1      0.09455      43.35800      40.71800     33.78800
   54     1     1      0.09455      42.13700      39.56900     34.32500
   55     1     1      0.09201      41.57100      41.38200     35.74100
   56     1     1      0.09201      43.22700      41.94500     35.82400
   57     1     1      0.09798      38.09100      37.53300     40.28100
   58     1     1      0.09798      38.70200      35.92200     40.51700
   59     1     1      0.10163      39.99300      36.72900     42.54100
   60     1     1      0.10163      39.17300      38.26500     42.38700
   61     1     1      0.09136      36.95200      37.10500     42.60600
   62     1     1      0.09136      37.78000      35.57800     42.72800
   63     1     1      0.10128      38.98000      36.44000     44.80000
   64     1     1      0.10013      38.20700      39.00200     44.28600
   65     1     1      0.10013      38.27800      38.38700     45.92200
   66     1     1      0.09645      36.04100      39.04300     46.00100
   67     1     1      0.09645      35.83600      38.89700     44.26300
   68     1     1      0.09139      35.13700      36.87600     46.21700
   69     1     1      0.09139      35.01700      36.78500     44.46800
   70     1     1      0.09478      36.65200      35.08400     44.77900
   71     1     1      0.09478      37.23800      35.83400     46.25000
   72     2     2     -0.09537      25.58000      22.18000     20.41700
   73     2     2     -0.17494      24.45900      22.38600     21.46400
   74     2     2     -0.16825      25.30700      20.94500     19.51900
   75     2     2     -0.16320      25.13300      19.60700     20.26700
   76     2     2     -0.16790      23.66000      19.18700     20.44700
   77     2     2     -0.13377      23.48700      17.95700     21.35600
   78     2     2     -0.18575      23.92600      18.21300     22.81100
   79     2     2     -0.19571      22.89700      17.50700     23.69100
   80     2     2     -0.19229      21.59700      17.62900     22.90100
   81     2     2     -0.18248      22.02300      17.48500     21.43900
   82     2     2     -0.20100      25.79600      23.45600     19.56700
   83     2     2     -0.19998      26.98900      23.39100     18.59600
   84     2     2     -0.17443      27.28100      24.75100     17.94000
   85     2     2     -0.13316      28.50500      24.73100     17.00100
   86     2     2     -0.19089      28.23500      24.01100     15.67200
   87     2     2     -0.18849      27.63000      25.06600     14.73800
   88     2     2     -0.18066      28.03100      26.43200     15.31300
   89     2     2     -0.18988      28.89300      26.14100     16.54500
   90     2     2     -0.18978      24.75100      23.45000     22.54000
   91     2     2     -0.11633      23.68000      23.51500     23.65000
   92     2     2     -0.17877      23.56600      22.18000     24.43100
   93     2     2     -0.18617      23.05600      22.37900     25.86500
   94     2     2     -0.17635      24.00900      23.26800     26.69100
   95     2     2     -0.17555      24.74100      24.32200     25.83400
   96     2     2     -0.17854      23.92400      24.71700     24.59500
   97     2     1      0.09835      22.72000      23.70000     23.16200
   98     2     1      0.10049      22.91000      21.49000     23.89700
   99     2     1      0.10049      24.54100      21.69100     24.48000
  100     2     1      0.09209      22.06800      22.84200     25.82600
  101     2     1      0.09209      22.91800      21.41800     26.36200
  102     2     1      0.08717      24.75000      22.65000     27.20000
  103     2     1      0.08717      23.43800      23.76000     27.48100
  104     2     1      0.08633      24.97000      25.20000     26.44000
  105     2     1      0.08633      25.70100      23.92200     25.50700
  106     2     1      0.08570      24.40700      25.54000     24.06800
  107     2     1      0.08570      22.96200      25.11300     24.92900
  108     2     1      0.09397      25.73000      23.26400     22.98700
  109     2     1      0.09397      24.81300      24.43000     22.06900
  110     2     1      0.09756      24.30600      21.44500     21.98600
  111     2     1      0.09756      23.51600      22.61100     20.96300
  112     2     1      0.09149      26.50400      21.98500     20.96500
  113     2     1      0.08249      26.15700      20.81200     18.85000
  114     2     1      0.08249      24.45300      21.12900     18.86500
  115     2     1      0.08556      25.65200      19.65000     21.22400
  116     2     1      0.08556      25.63700      18.82000     19.70400
  117     2     1      0.09927      23.24000      18.96900     19.46400
  118     2     1      0.09927      23.06300      20.01000     20.83800
  119     2     1      0.10228      24.08100      17.13600     20.95000
  120     2     1      0.09537      23.90300      19.28200     23.03400
  121     2     1      0.09537      24.94200      17.86900     23.00600
  122     2     1      0.09687      23.16500      16.45500     23.80400
  123     2     1      0.09687      22.82700      17.94100     24.69000
  124     2     1      0.09455      20.85100      16.89000     23.19900
  125     2     1      0.09455      21.16400      18.61700     23.06200
  126     2     1      0.09201      21.35500      18.03600     20.77300
  127     2     1      0.09201      21.96200      16.43500     21.14200
  128     2     1      0.09798      24.88600      23.69000     19.01300
  129     2     1      0.09798      25.96700      24.30300     20.22800
  130     2     1      0.10163      27.87700      23.05100     19.13300
  131     2     1      0.10163      26.79500      22.65300     17.82000
  132     2     1      0.09136      26.40000      25.10100     17.39900
  133     2     1      0.09136      27.45700      25.48300     18.73000
  134     2     1      0.10128      29.34300      24.26900     17.52700
  135     2     1      0.10013      27.60200      23.12800     15.76900
  136     2     1      0.10013      29.18400      23.66900     15.25600
  137     2     1      0.09645      27.97800      24.93500     13.71200
  138     2     1      0.09645      26.54300      24.97600     14.72200
  139     2     1      0.09139      28.56400      27.04500     14.58500
  140     2     1      0.09139      27.13700      26.98600     15.60500
  141     2     1      0.09478      28.78100      26.89700     17.32400
  142     2     1      0.09478      29.94500      26.14500     16.25300
  143     3     2     -0.09537      36.95300      33.51700     21.20000
  144     3     2     -0.17494      36.14200      34.79400     21.52700
  145     3     2     -0.16825      38.25900      33.43800     22.03200
  146     3     2     -0.16320      39.21900      34.63600     21.87700
  147     3     2     -0.16790      39.12600      35.65500     23.03000
  148     3     2     -0.13377      39.94000      36.93600     22.77500
  149     3     2     -0.18575      39.41600      37.75800     21.58100
  150     3     2     -0.19571      39.51300      39.22200     22.00400
  151     3     2     -0.19229      39.25300      39.18500     23.50700
  152     3     2     -0.18248      39.92500      37.89600     23.98100
  153     3     2     -0.20100      36.09300      32.24300     21.38200
  154     3     2     -0.19998      36.77400      30.93500     20.94100
  155     3     2     -0.17443      35.80200      29.74200     20.94600
  156     3     2     -0.13316      36.44200      28.42500     20.45800
  157     3     2     -0.19089      37.40200      27.80500     21.48300
  158     3     2     -0.18849      36.53100      26.94900     22.41100
  159     3     2     -0.18066      35.23400      26.66200     21.64100
  160     3     2     -0.18988      35.39600      27.32300     20.26800
  161     3     2     -0.18978      34.94600      35.07100     20.59400
  162     3     2     -0.11633      34.26100      36.42900     20.85700
  163     3     2     -0.17877      35.22400      37.62300     20.63300
  164     3     2     -0.18617      34.48500      38.91000     20.24000
  165     3     2     -0.17635      33.71100      38.74100     18.91600
  166     3     2     -0.17555      33.20500      37.30100     18.69600
  167     3     2     -0.17854      32.96300      36.57200     20.02500
  168     3     1      0.09835      33.95400      36.43800     21.90500
  169     3     1      0.10049      35.81900      37.79700     21.53200
  170     3     1      0.10049      35.93900      37.38500     19.84300
  171     3     1      0.09209      33.78900      39.17300     21.03800
  172     3     1      0.09209      35.18200      39.74600     20.16200
  173     3     1      0.08717      34.34400      39.02600     18.07400
  174     3     1      0.08717      32.87200      39.43900     18.90600
  175     3     1      0.08633      32.29600      37.31500     18.09300
  176     3     1      0.08633      33.94000      36.74100     18.11800
  177     3     1      0.08570      32.50100      35.60100     19.84700
  178     3     1      0.08570      32.22800      37.14000     20.60000
  179     3     1      0.09397      35.27100      35.02100     19.55300
  180     3     1      0.09397      34.20300      34.28400     20.71900
  181     3     1      0.09756      36.80800      35.64800     21.44400
  182     3     1      0.09756      35.80800      34.76900     22.56500
  183     3     1      0.09149      37.24100      33.57500     20.14900
  184     3     1      0.08249      38.81700      32.55800     21.71300
  185     3     1      0.08249      38.03200      33.26700     23.08600
  186     3     1      0.08556      39.05500      35.11600     20.91200
  187     3     1      0.08556      40.24400      34.26500     21.84100
  188     3     1      0.09927      39.48500      35.17700     23.94300
  189     3     1      0.09927      38.08900      35.92200     23.23500
  190     3     1      0.10228      40.97800      36.65800     22.58100
  191     3     1      0.09537      38.37000      37.51900     21.38300
  192     3     1      0.09537      39.96800      37.55600     20.66200
  193     3     1      0.09687      40.52000      39.59900     21.81100
  194     3     1      0.09687      38.81100      39.86400     21.46900
  195     3     1      0.09455      39.62800      40.07200     24.02300
  196     3     1      0.09455      38.17900      39.12900     23.69000
  197     3     1      0.09201      39.42000      37.48000     24.85500
  198     3     1      0.09201      40.95200      38.11000     24.28700
  199     3     1      0.09798      35.77500      32.15700     22.42300
  200     3     1      0.09798      35.17900      32.34000     20.80000
  201     3     1      0.10163      37.18700      31.06000     19.93900
  202     3     1      0.10163      37.61400      30.71500     21.59800
  203     3     1      0.09136      35.38300      29.60600     21.94500
  204     3     1      0.09136      34.95800      29.98300     20.29800
  205     3     1      0.10128      36.95600      28.61500     19.51300
  206     3     1      0.10013      37.99800      28.53600     22.03000
  207     3     1      0.10013      38.10800      27.15700     20.95900
  208     3     1      0.09645      37.04400      26.03200     22.70400
  209     3     1      0.09645      36.30400      27.49800     23.32600
  210     3     1      0.09139      35.03600      25.59300     21.55100
  211     3     1      0.09139      34.38600      27.10200     22.16900
  212     3     1      0.09478      34.45000      27.68600     19.86200
  213     3     1      0.09478      35.77900      26.58500     19.56000
  214     4     2     -0.09537      43.53100       9.65400     26.80700
  215     4     2     -0.17494      44.64500      10.40200     27.57900
  216     4     2     -0.16825      42.20900      10.46500     26.77600
  217     4     2     -0.16320      41.63100      10.84200     28.15600
  218     4     2     -0.16790      41.93800      12.29300     28.57900
  219     4     2     -0.13377      41.52600      12.60100     30.02900
  220     4     2     -0.18575      42.32300      11.79100     31.07100
  221     4     2     -0.19571      42.61300      12.75300     32.22000
  222     4     2     -0.19229      42.76700      14.10600     31.53300
  223     4     2     -0.18248      41.73900      14.08200     30.40200
  224     4     2     -0.20100      43.99300       9.27800     25.37800
  225     4     2     -0.19998      43.00200       8.40600     24.58700
  226     4     2     -0.17443      43.60200       7.89200     23.26700
  227     4     2     -0.13316      42.65100       6.97000     22.47600
  228     4     2     -0.19089      41.50100       7.72900     21.79900
  229     4     2     -0.18849      42.04700       8.20000     20.44600
  230     4     2     -0.18066      43.25500       7.30500     20.13300
  231     4     2     -0.18988      43.35900       6.30700     21.29000
  232     4     2     -0.18978      45.92100       9.58100     27.85300
  233     4     2     -0.11633      46.94000      10.30900     28.75500
  234     4     2     -0.17877      46.35900      10.62200     30.15900
  235     4     2     -0.18617      47.44700      10.71500     31.23800
  236     4     2     -0.17635      48.21600       9.38700     31.38800
  237     4     2     -0.17555      48.31500       8.59700     30.06800
  238     4     2     -0.17854      48.27100       9.52400     28.84400
  239     4     1      0.09835      47.17800      11.25900     28.27200
  240     4     1      0.10049      45.78700      11.55100     30.12700
  241     4     1      0.10049      45.65200       9.84400     30.45300
  242     4     1      0.09209      48.14300      11.51100     30.96700
  243     4     1      0.09209      47.01500      11.00700     32.19600
  244     4     1      0.08717      47.73500       8.75900     32.14000
  245     4     1      0.08717      49.21500       9.59900     31.77300
  246     4     1      0.08633      49.22500       7.99400     30.06200
  247     4     1      0.08633      47.48700       7.89100     30.00200
  248     4     1      0.08570      48.45500       8.95700     27.93100
  249     4     1      0.08570      49.10100      10.23000     28.91800
  250     4     1      0.09397      45.65400       8.62200     28.30200
  251     4     1      0.09397      46.40800       9.34800     26.90700
  252     4     1      0.09756      44.24700      10.69600     28.54600
  253     4     1      0.09756      44.90000      11.32800     27.06200
  254     4     1      0.09149      43.33000       8.72600     27.34500
  255     4     1      0.08249      41.44800       9.86300     26.28100
  256     4     1      0.08249      42.32200      11.35500     26.15500
  257     4     1      0.08556      41.97500      10.13000     28.90600
  258     4     1      0.08556      40.54600      10.72500     28.12700
  259     4     1      0.09927      41.40900      12.96800     27.90500
  260     4     1      0.09927      42.99400      12.52400     28.44800
  261     4     1      0.10228      40.46400      12.37600     30.14800
  262     4     1      0.09537      43.27200      11.45500     30.64700
  263     4     1      0.09537      41.78900      10.89900     31.40100
  264     4     1      0.09687      41.76200      12.78000     32.90500
  265     4     1      0.09687      43.49400      12.46700     32.79800
  266     4     1      0.09455      42.62500      14.94500     32.21700
  267     4     1      0.09455      43.77200      14.19000     31.11600
  268     4     1      0.09201      42.06000      14.69600     29.55800
  269     4     1      0.09201      40.79600      14.50600     30.75600
  270     4     1      0.09798      44.21600      10.18400     24.81100
  271     4     1      0.09798      44.92900       8.72700     25.43600
  272     4     1      0.10163      42.69600       7.55600     25.20000
  273     4     1      0.10163      42.09800       8.97400     24.37200
  274     4     1      0.09136      43.91100       8.73400     22.64500
  275     4     1      0.09136      44.51500       7.34000     23.49700
  276     4     1      0.10128      42.26400       6.20400     23.15100
  277     4     1      0.10013      41.10100       8.54900     22.39500
  278     4     1      0.10013      40.67400       7.03700     21.62800
  279     4     1      0.09645      41.28400       8.14500     19.66800
  280     4     1      0.09645      42.36600       9.24200     20.51000
  281     4     1      0.09139      43.15300       6.79700     19.17200
  282     4     1      0.09139      44.16000       7.91200     20.08000
  283     4     1      0.09478      44.39000       6.01900     21.50500
  284     4     1      0.09478      42.82700       5.39300     21.02200
  285     5     2     -0.09537       7.97000      17.33500     10.92900
  286     5     2     -0.17494       7.80000      15.87600     11.41600
  287     5     2     -0.16825       6.60200      18.03700     10.72900
  288     5     2     -0.16320       5.63700      17.34000      9.74700
  289     5     2     -0.16790       4.54900      16.49700     10.44300
  290     5     2     -0.13377       3.71300      15.65700      9.46200
  291     5     2     -0.18575       4.53800      14.57500      8.73700
  292     5     2     -0.19571       3.64700      13.33600      8.67700
  293     5     2     -0.19229       2.83000      13.41200      9.96300
  294     5     2     -0.18248       2.56200      14.90500     10.15900
  295     5     2     -0.20100       8.88100      18.14400     11.88500
  296     5     2     -0.19998       9.22300      19.56500     11.40300
  297     5     2     -0.17443      10.29400      20.23600     12.28000
  298     5     2     -0.13316      10.69700      21.64300     11.79200
  299     5     2     -0.19089       9.62600      22.70800     12.07000
  300     5     2     -0.18849       9.89200      23.20900     13.49500
  301     5     2     -0.18066      11.35000      22.84800     13.81300
  302     5     2     -0.18988      11.91200      22.18200     12.55300
  303     5     2     -0.18978       9.09000      15.03200     11.43000
  304     5     2     -0.11633       8.85100      13.54600     11.77300
  305     5     2     -0.17877       7.93000      12.84800     10.73800
  306     5     2     -0.18617       8.18900      11.33800     10.64400
  307     5     2     -0.17635       9.63200      11.03300     10.19400
  308     5     2     -0.17555      10.64500      12.09900     10.66000
  309     5     2     -0.17854      10.19000      12.79000     11.95500
  310     5     1      0.09835       8.34900      13.51500     12.74200
  311     5     1      0.10049       6.88300      13.03000     10.98700
  312     5     1      0.10049       8.08300      13.28300      9.74800
  313     5     1      0.09209       8.01000      10.88900     11.62300
  314     5     1      0.09209       7.47800      10.86700      9.96400
  315     5     1      0.08717       9.67700      10.95700      9.10600
  316     5     1      0.08717       9.92100      10.05200     10.57300
  317     5     1      0.08633      11.62800      11.64600     10.79100
  318     5     1      0.08633      10.76300      12.85500      9.88300
  319     5     1      0.08570      10.97000      13.45600     12.32500
  320     5     1      0.08570      10.07000      12.02700     12.72700
  321     5     1      0.09397       9.59100      15.10800     10.46300
  322     5     1      0.09397       9.78100      15.44400     12.16400
  323     5     1      0.09756       7.10400      15.37500     10.74900
  324     5     1      0.09756       7.33500      15.86300     12.40400
  325     5     1      0.09149       8.46100      17.29700      9.95600
  326     5     1      0.08249       6.78200      19.03200     10.32500
  327     5     1      0.08249       6.11200      18.20200     11.69100
  328     5     1      0.08556       6.20500      16.74200      9.03500
  329     5     1      0.08556       5.13600      18.10000      9.14600
  330     5     1      0.09927       3.88800      17.17100     10.99100
  331     5     1      0.09927       4.98300      15.84300     11.19900
  332     5     1      0.10228       3.27500      16.32200      8.71600
  333     5     1      0.09537       5.43600      14.33300      9.30900
  334     5     1      0.09537       4.86800      14.89600      7.74800
  335     5     1      0.09687       2.98400      13.39800      7.81200
  336     5     1      0.09687       4.21700      12.41000      8.59100
  337     5     1      0.09455       1.91400      12.82100      9.91700
  338     5     1      0.09455       3.42400      13.03200     10.79500
  339     5     1      0.09201       2.46300      15.15700     11.21800
  340     5     1      0.09201       1.61500      15.17200      9.68500
  341     5     1      0.09798       8.42700      18.19300     12.87600
  342     5     1      0.09798       9.82300      17.61500     12.01600
  343     5     1      0.10163       9.57600      19.52400     10.37100
  344     5     1      0.10163       8.32500      20.18000     11.40000
  345     5     1      0.09136       9.95100      20.28400     13.31600
  346     5     1      0.09136      11.18000      19.60000     12.28800
  347     5     1      0.10128      10.92200      21.59200     10.72400
  348     5     1      0.10013       8.60400      22.35300     11.93800
  349     5     1      0.10013       9.76000      23.53500     11.37000
  350     5     1      0.09645       9.70800      24.28100     13.57900
  351     5     1      0.09645       9.22600      22.71100     14.20000
  352     5     1      0.09139      11.93800      23.72200     14.10100
  353     5     1      0.09139      11.38300      22.15000     14.65100
  354     5     1      0.09478      12.65700      21.41800     12.77800
  355     5     1      0.09478      12.41000      22.93700     11.94200
  356     6     2     -0.09537      24.77700      18.02200     15.02500
  357     6     2     -0.17494      26.23900      17.75000     15.45500
  358     6     2     -0.16825      24.22500      16.89100     14.12000
  359     6     2     -0.16320      25.03200      16.61700     12.83300
  360     6     2     -0.16790      25.97300      15.40100     12.94200
  361     6     2     -0.13377      26.91100      15.25000     11.73100
  362     6     2     -0.18575      27.91100      16.41500     11.59000
  363     6     2     -0.19571      29.23600      15.78300     11.17100
  364     6     2     -0.19229      29.22700      14.42400     11.86500
  365     6     2     -0.18248      27.76800      13.97100     11.80300
  366     6     2     -0.20100      23.86400      18.25300     16.25400
  367     6     2     -0.19998      22.42200      18.67300     15.91800
  368     6     2     -0.17443      21.63100      19.09200     17.16900
  369     6     2     -0.13316      20.19600      19.56900     16.85900
  370     6     2     -0.19089      19.24500      18.42100     16.49200
  371     6     2     -0.18849      18.69800      17.88700     17.82200
  372     6     2     -0.18066      18.90100      19.00700     18.85200
  373     6     2     -0.18988      19.52300      20.18200     18.09100
  374     6     2     -0.18978      26.94300      18.92000     16.16900
  375     6     2     -0.11633      28.44100      18.66500     16.44100
  376     6     2     -0.17877      29.24600      18.45600     15.13200
  377     6     2     -0.18617      30.72200      18.85000     15.27900
  378     6     2     -0.17635      30.88100      20.34200     15.63500
  379     6     2     -0.17555      29.70900      20.88700     16.47700
  380     6     2     -0.17854      29.05100      19.78400     17.32000
  381     6     1      0.09835      28.51100      17.74500     17.02700
  382     6     1      0.10049      29.17000      17.41600     14.80900
  383     6     1      0.10049      28.81100      19.05200     14.32700
  384     6     1      0.09209      31.17300      18.23900     16.06200
  385     6     1      0.09209      31.27400      18.62400     14.36600
  386     6     1      0.08717      30.96800      20.93800     14.72500
  387     6     1      0.08717      31.82100      20.48000     16.17100
  388     6     1      0.08633      30.05500      21.70300     17.11300
  389     6     1      0.08633      28.95600      21.32000     15.81700
  390     6     1      0.08570      28.30200      20.21200     17.98700
  391     6     1      0.08570      29.81100      19.35400     17.97500
  392     6     1      0.09397      26.82900      19.83400     15.58300
  393     6     1      0.09397      26.45100      19.10800     17.12300
  394     6     1      0.09756      26.81900      17.53200     14.56200
  395     6     1      0.09756      26.28600      16.85200     16.07300
  396     6     1      0.09149      24.77700      18.93900     14.43500
  397     6     1      0.08249      23.22200      17.16700     13.79700
  398     6     1      0.08249      24.09800      15.96900     14.69200
  399     6     1      0.08556      25.57800      17.51500     12.54400
  400     6     1      0.08556      24.33600      16.42900     12.01400
  401     6     1      0.09927      25.36500      14.50000     13.03900
  402     6     1      0.09927      26.56800      15.44500     13.85400
  403     6     1      0.10228      26.30500      15.19600     10.82400
  404     6     1      0.09537      28.05000      16.91500     12.55000
  405     6     1      0.09537      27.57100      17.17200     10.88300