LAMMPS data file of the system for full atom style

    4950 atoms
    4905 bonds
    9720 angles
   14175 dihedrals
    3240 impropers

    2 atom types
    2 bond types
    3 angle types
    2 dihedral types
    1 improper types

    0.000000    50.000000 xlo xhi
    0.000000    50.000000 ylo yhi
    0.000000    50.000000 zlo zhi

 Masses 

    1       1.0080
    2      12.0110

 Pair Coeffs 

    1       0.0300       2.5000
    2       0.0660       3.5000

 Bond Coeffs 

    1     268.0000        1.5290
    2     340.0000        1.0900

 Angle Coeffs 

    1      33.0000      107.8000
    2      37.5000      110.7000
    3      58.3500      112.7000

 Dihedral Coeffs 

    1       0.0000        0.0000       0.3000        0.0000
    2       1.3000       -0.2000       0.2000        0.0000

 Improper Coeffs 

    1       0.0000     -1     2

 Atoms 

    1     1     2     -0.23890      23.02100      32.53100     29.43500
    2     1     2     -0.17970      22.91900      31.88200     28.06500
    3     1     2     -0.17860      21.46700      31.79100     27.60800
    4     1     2     -0.18030      21.37200      31.13600     26.23400
    5     1     2     -0.17940      19.92300      31.04300     25.76800
    6     1     2     -0.18010      19.85400      30.38800     24.39300
    7     1     2     -0.18010      18.41400      30.28800     23.91000
    8     1     2     -0.17910      18.35800      29.63200     22.53300
    9     1     2     -0.18140      16.91500      29.54300     22.06800
   10     1     2     -0.17940      16.80100      28.89600     20.69500
   11     1     2     -0.18250      15.33400      28.90100     20.26700
   12     1     2     -0.17560      15.14700      28.26500     18.89500
   13     1     2     -0.10840      13.66200      28.13600     18.48600
   14     1     2     -0.17190      12.97500      29.51800     18.37700
   15     1     2     -0.17570      11.46500      29.47800     18.09500
   16     1     2     -0.17520      10.64200      28.70500     19.13100
   17     1     2     -0.18060      10.77600      29.31700     20.52300
   18     1     2     -0.18030       9.95900      28.55500     21.55500
   19     1     2     -0.18010      10.12700      29.20300     22.92600
   20     1     2     -0.18050       9.31800      28.45300     23.97300
   21     1     2     -0.17970       9.47800      29.09400     25.34700
   22     1     2     -0.18030       8.65900      28.32900     26.37900
   23     1     2     -0.17880       8.80200      28.95400     27.76200
   24     1     2     -0.18000       7.97900      28.18300     28.78900
   25     1     2     -0.23880       8.11400      28.80100     30.16900
   26     1     2     -0.17670      13.53500      27.39300     17.14400
   27     1     2     -0.18190      14.07200      25.97000     17.18600
   28     1     2     -0.18150      13.90800      25.30900     15.82600
   29     1     2     -0.18110      14.45000      23.89200     15.88300
   30     1     2     -0.18030      14.29800      23.21000     14.53400
   31     1     2     -0.18030      14.84400      21.79200     14.60800
   32     1     2     -0.18050      14.69400      21.09900     13.26100
   33     1     2     -0.17980      15.23600      19.67700     13.32500
   34     1     2     -0.17940      15.08000      18.99200     11.97300
   35     1     2     -0.17980      15.62000      17.56700     12.01500
   36     1     2     -0.23880      15.46300      16.89100     10.66300
   37     1     1      0.08070      24.06700      32.58800     29.74900
   38     1     1      0.08070      22.47000      31.95300     30.18300
   39     1     1      0.08070      22.61600      33.54800     29.41500
   40     1     1      0.08840      23.35900      30.87900     28.10700
   41     1     1      0.08840      23.50200      32.46600     27.34300
   42     1     1      0.08970      21.02800      32.79600     27.56800
   43     1     1      0.08970      20.88500      31.20900     28.33300
   44     1     1      0.08940      21.81200      30.13100     26.27300
   45     1     1      0.08940      21.95400      31.71800     25.50700
   46     1     1      0.09000      19.48100      32.04700     25.72400
   47     1     1      0.09000      19.33600      30.45900     26.48900
   48     1     1      0.08970      20.29700      29.38700     24.44000
   49     1     1      0.08970      20.44200      30.97300     23.67700
   50     1     1      0.08990      17.96900      31.29000     23.86400
   51     1     1      0.08990      17.82300      29.70200     24.62300
   52     1     1      0.09050      18.80200      28.63000     22.57800
   53     1     1      0.09050      18.94600      30.22100     21.81800
   54     1     1      0.08930      16.48100      30.55100     22.03500
   55     1     1      0.08930      16.33000      28.96400     22.79400
   56     1     1      0.09070      17.18400      27.86800     20.73100
   57     1     1      0.09070      17.40200      29.44900     19.96500
   58     1     1      0.08980      14.98600      29.93700     20.25700
   59     1     1      0.08980      14.73500      28.35600     21.00800
   60     1     1      0.09010      15.60700      27.27200     18.94500
   61     1     1      0.09010      15.69700      28.83400     18.13700
   62     1     1      0.10100      13.16200      27.54700     19.26000
   63     1     1      0.08820      13.46000      30.09600     17.58100
   64     1     1      0.08820      13.12800      30.09000     19.29500
   65     1     1      0.08610      11.27400      29.05800     17.10300
   66     1     1      0.08610      11.09900      30.51100     18.05500
   67     1     1      0.08900      10.93900      27.65100     19.14900
   68     1     1      0.08900       9.59000      28.72500     18.82500
   69     1     1      0.09060      10.44800      30.36300     20.49100
   70     1     1      0.09060      11.82300      29.31100     20.84100
   71     1     1      0.08990      10.29300      27.51100     21.59500
   72     1     1      0.08990       8.90100      28.55200     21.27000
   73     1     1      0.08980       9.80000      30.25000     22.88300
   74     1     1      0.08980      11.18700      29.20600     23.20800
   75     1     1      0.08970       9.64800      27.40800     24.01300
   76     1     1      0.08970       8.25900      28.45100     23.68800
   77     1     1      0.09000       9.14900      30.14000     25.30700
   78     1     1      0.09000      10.53700      29.09500     25.63400
   79     1     1      0.08950       8.98900      27.28400     26.40900
   80     1     1      0.08950       7.60300      28.32900     26.08100
   81     1     1      0.08990       8.47200      29.99900     27.72900
   82     1     1      0.08990       9.85800      28.95500     28.05800
   83     1     1      0.08860       8.31100      27.13900     28.82300
   84     1     1      0.08860       6.92300      28.18000     28.49100
   85     1     1      0.08080       9.15500      28.79300     30.49800
   86     1     1      0.08080       7.51800      28.23800     30.89400
   87     1     1      0.08080       7.76100      29.83800     30.16600
   88     1     1      0.09000      14.05300      27.96200     16.36200
   89     1     1      0.09000      12.48200      27.33200     16.84900
   90     1     1      0.09070      13.53900      25.39400     17.95200
   91     1     1      0.09070      15.13600      25.95900     17.44400
   92     1     1      0.09030      14.45100      25.88500     15.06600
   93     1     1      0.09030      12.85100      25.30000     15.53700
   94     1     1      0.09010      13.91500      23.32300     16.65300
   95     1     1      0.09010      15.51000      23.91200     16.17000
   96     1     1      0.09040      14.83800      23.77900     13.76800
   97     1     1      0.09040      13.24100      23.19100     14.24500
   98     1     1      0.09020      14.30400      21.22700     15.37900
   99     1     1      0.09020      15.90100      21.81600     14.90000
  100     1     1      0.08990      15.23200      21.66900     12.49300
  101     1     1      0.08990      13.63600      21.08300     12.97200
  102     1     1      0.08990      14.69700      19.11200     14.09500
  103     1     1      0.08990      16.29300      19.69800     13.61500
  104     1     1      0.08960      15.61600      19.56800     11.20700
  105     1     1      0.08960      14.02200      18.98000     11.68900
  106     1     1      0.08860      15.08300      16.98800     12.77600
  107     1     1      0.08860      16.67900      17.57700     12.29600
  108     1     1      0.08080      14.40900      16.84600     10.37300
  109     1     1      0.08080      15.85100      15.86900     10.70500
  110     1     1      0.08080      16.01100      17.43700      9.89000
  111     2     2     -0.23890      20.67300      30.13800      3.43900
  112     2     2     -0.17970      19.61400      29.05100      3.48600
  113     2     2     -0.17860      18.23100      29.64200      3.73900
  114     2     2     -0.18030      17.17300      28.54400      3.78700
  115     2     2     -0.17940      15.78700      29.12700      4.03700
  116     2     2     -0.18010      14.74700      28.01300      4.07900
  117     2     2     -0.18010      13.35500      28.57600      4.32600
  118     2     2     -0.17910      12.32400      27.45300      4.36500
  119     2     2     -0.18140      10.94200      28.03400      4.61000
  120     2     2     -0.17940       9.87200      26.95300      4.65700
  121     2     2     -0.18250       8.50800      27.61600      4.84000
  122     2     2     -0.17560       7.38500      26.58600      4.89600
  123     2     2     -0.10840       6.00700      27.21200      5.20900
  124     2     2     -0.17190       5.56900      28.21400      4.11600
  125     2     2     -0.17570       4.26700      28.97500      4.40900
  126     2     2     -0.17520       4.27900      29.78500      5.70800
  127     2     2     -0.18060       5.37300      30.84900      5.69600
  128     2     2     -0.18030       5.38800      31.65800      6.98400
  129     2     2     -0.18010       6.49600      32.70500      6.92200
  130     2     2     -0.18050       6.52800      33.52300      8.20300
  131     2     2     -0.17970       7.63300      34.57400      8.15100
  132     2     2     -0.18030       7.64600      35.38300      9.44300
  133     2     2     -0.17880       8.74200      36.44200      9.41200
  134     2     2     -0.18000       8.74700      37.24700     10.70700
  135     2     2     -0.23880       9.83500      38.30600     10.68400
  136     2     2     -0.17670       4.93900      26.11400      5.35600
  137     2     2     -0.18190       5.21800      25.14500      6.49600
  138     2     2     -0.18150       4.11700      24.09700      6.57200
  139     2     2     -0.18110       4.41100      23.13800      7.71300
  140     2     2     -0.18030       3.32500      22.08000      7.80900
  141     2     2     -0.18030       3.63200      21.12800      8.95500
  142     2     2     -0.18050       2.54700      20.06400      9.06100
  143     2     2     -0.17980       2.84500      19.10800     10.20800
  144     2     2     -0.17940       1.75400      18.04800     10.30700
  145     2     2     -0.17980       2.03400      17.07700     11.44800
  146     2     2     -0.23880       0.94400      16.02300     11.53900
  147     2     1      0.08070      21.65900      29.69800      3.25800
  148     2     1      0.08070      20.71100      30.68600      4.38600
  149     2     1      0.08070      20.46600      30.85000      2.63400
  150     2     1      0.08840      19.86300      28.33600      4.28000
  151     2     1      0.08840      19.61700      28.50100      2.53800
  152     2     1      0.08970      17.98300      30.35700      2.94400
  153     2     1      0.08970      18.23100      30.19400      4.68600
  154     2     1      0.08940      17.42100      27.82800      4.58100
  155     2     1      0.08940      17.17200      27.99100      2.83900
  156     2     1      0.09000      15.53400      29.84100      3.24300
  157     2     1      0.09000      15.78000      29.67900      4.98600
  158     2     1      0.08970      15.00300      27.30100      4.87200
  159     2     1      0.08970      14.75900      27.46400      3.13000
  160     2     1      0.08990      13.09900      29.29000      3.53400
  161     2     1      0.08990      13.34000      29.12600      5.27500
  162     2     1      0.09050      12.57800      26.73800      5.15800
  163     2     1      0.09050      12.33600      26.90600      3.41300
  164     2     1      0.08930      10.70400      28.75100      3.81500
  165     2     1      0.08930      10.94100      28.59000      5.55700
  166     2     1      0.09070      10.07400      26.26000      5.48400
  167     2     1      0.09070       9.88000      26.37200      3.72900
  168     2     1      0.08980       8.35100      28.30700      4.00800
  169     2     1      0.08980       8.51000      28.20600      5.76700
  170     2     1      0.09010       7.65700      25.87000      5.67900
  171     2     1      0.09010       7.34000      26.02800      3.95400
  172     2     1      0.10100       6.09900      27.73900      6.16300
  173     2     1      0.08820       5.45100      27.67800      3.16600
  174     2     1      0.08820       6.35600      28.95200      3.94200
  175     2     1      0.08610       3.41800      28.28400      4.42600
  176     2     1      0.08610       4.07600      29.65700      3.57000
  177     2     1      0.08900       4.40200      29.12300      6.57200
  178     2     1      0.08900       3.30300      30.26900      5.82600
  179     2     1      0.09060       5.21700      31.51800      4.84100
  180     2     1      0.09060       6.35500      30.38300      5.57200
  181     2     1      0.08990       5.55400      30.99200      7.83800
  182     2     1      0.08990       4.41900      32.14900      7.13200
  183     2     1      0.08980       6.33400      33.36600      6.06100
  184     2     1      0.08980       7.46500      32.21100      6.77300
  185     2     1      0.08970       6.69200      32.85900      9.06000
  186     2     1      0.08970       5.55900      34.01400      8.35000
  187     2     1      0.09000       7.47100      35.23800      7.29300
  188     2     1      0.09000       8.60300      34.08300      8.00500
  189     2     1      0.08950       7.80200      34.71100     10.29500
  190     2     1      0.08950       6.67000      35.86400      9.58200
  191     2     1      0.08990       8.58300      37.11000      8.55800
  192     2     1      0.08990       9.71600      35.95900      9.27100
  193     2     1      0.08860       8.90900      36.57800     11.56000
  194     2     1      0.08860       7.77200      37.72800     10.84900
  195     2     1      0.08080      10.82000      37.84900     10.56800
  196     2     1      0.08080       9.82600      38.87500     11.61900
  197     2     1      0.08080       9.67900      39.00500      9.85600
  198     2     1      0.09000       4.85200      25.56100      4.41300
  199     2     1      0.09000       3.96100      26.56700      5.55000
  200     2     1      0.09070       5.28100      25.69400      7.44400
  201     2     1      0.09070       6.17100      24.62800      6.34900
  202     2     1      0.09030       4.06500      23.54600      5.62500
  203     2     1      0.09030       3.14600      24.58100      6.72400
  204     2     1      0.09010       4.47600      23.69400      8.65500
  205     2     1      0.09010       5.38300      22.65600      7.55000
  206     2     1      0.09040       3.26500      21.52300      6.86600
  207     2     1      0.09040       2.35200      22.55900      7.96800
  208     2     1      0.09020       3.69500      21.69000      9.89500
  209     2     1      0.09020       4.60600      20.65200      8.79200
  210     2     1      0.08990       2.48600      19.50800      8.11800
  211     2     1      0.08990       1.57500      20.54600      9.22000
  212     2     1      0.08990       2.90800      19.66800     11.14800
  213     2     1      0.08990       3.81800      18.62900     10.04600
  214     2     1      0.08960       1.69200      17.49700      9.35900
  215     2     1      0.08960       0.78500      18.53500     10.46300
  216     2     1      0.08860       2.09200      17.62500     12.39700
  217     2     1      0.08860       3.00200      16.58700     11.29200
  218     2     1      0.08080      -0.03000      16.48800     11.72100
  219     2     1      0.08080       1.15300      15.33400     12.36200
  220     2     1      0.08080       0.88300      15.44600     10.61200
  221     3     2     -0.23890      44.17600      23.34900     24.26700
  222     3     2     -0.17970      43.44400      22.06100     24.60500
  223     3     2     -0.17860      42.03200      22.34700     25.10600
  224     3     2     -0.18030      41.30400      21.05100     25.44500
  225     3     2     -0.17940      39.89100      21.32800     25.94500
  226     3     2     -0.18010      39.18400      20.01900     26.27500
  227     3     2     -0.18010      37.76900      20.27600     26.77400
  228     3     2     -0.17910      37.07100      18.95900     27.10000
  229     3     2     -0.18140      35.66200      19.23500     27.59500
  230     3     2     -0.17940      34.91800      17.95100     27.93300
  231     3     2     -0.18250      33.49300      18.30400     28.35900
  232     3     2     -0.17560      32.68800      17.05900     28.71400
  233     3     2     -0.10840      31.28500      17.38600     29.27100
  234     3     2     -0.17190      30.41500      18.13500     28.23400
  235     3     2     -0.17570      29.04700      18.60800     28.74700
  236     3     2     -0.17520      29.10600      19.54000     29.96200
  237     3     2     -0.18060      29.88300      20.81600     29.65200
  238     3     2     -0.18030      29.94400      21.74500     30.85500
  239     3     2     -0.18010      30.73000      23.00200     30.49500
  240     3     2     -0.18050      30.80300      23.94400     31.68700
  241     3     2     -0.17970      31.58600      25.20600     31.33700
  242     3     2     -0.18030      31.64600      26.13400     32.54400
  243     3     2     -0.17880      32.42300      27.40500     32.21600
  244     3     2     -0.18000      32.47700      28.32900     33.42800
  245     3     2     -0.23880      33.24800      29.59800     33.10900
  246     3     2     -0.17670      30.56500      16.09800     29.70900
  247     3     2     -0.18190      31.28400      15.35100     30.82300
  248     3     2     -0.18150      30.50900      14.09600     31.19500
  249     3     2     -0.18110      31.23900      13.36100     32.30600
  250     3     2     -0.18030      30.48400      12.10100     32.69500
  251     3     2     -0.18030      31.22600      11.37700     33.80800
  252     3     2     -0.18050      30.47600      10.11400     34.20600
  253     3     2     -0.17980      31.21100       9.38400     35.32200
  254     3     2     -0.17940      30.45200       8.12100     35.71600
  255     3     2     -0.17980      31.17200       7.37300     36.83000
  256     3     2     -0.23880      30.41100       6.11600     37.21500
  257     3     1      0.08070      45.18600      23.12600     23.91000
  258     3     1      0.08070      44.25800      23.99300     25.14800
  259     3     1      0.08070      43.65200      23.90100     23.48100
  260     3     1      0.08840      44.00700      21.51500     25.37100
  261     3     1      0.08840      43.40200      21.42400     23.71300
  262     3     1      0.08970      41.47100      22.89500     24.33800
  263     3     1      0.08970      42.07700      22.98700     25.99600
  264     3     1      0.08940      41.86600      20.50200     26.21200
  265     3     1      0.08940      41.25900      20.41000     24.55400
  266     3     1      0.09000      39.32600      21.87400     25.17900
  267     3     1      0.09000      39.93000      21.96600     26.83800
  268     3     1      0.08970      39.75200      19.47600     27.03900
  269     3     1      0.08970      39.14900      19.38500     25.38100
  270     3     1      0.08990      37.20000      20.82000     26.01100
  271     3     1      0.08990      37.80000      20.90900     27.66900
  272     3     1      0.09050      37.63900      18.41300     27.86400
  273     3     1      0.09050      37.03500      18.32600     26.20400
  274     3     1      0.08930      35.10800      19.78600     26.82400
  275     3     1      0.08930      35.70400      19.87800     28.48300
  276     3     1      0.09070      35.43600      17.41900     28.74100
  277     3     1      0.09070      34.89100      17.28800     27.06300
  278     3     1      0.08980      33.01700      18.84400     27.53700
  279     3     1      0.08980      33.52700      18.97800     29.22500
  280     3     1      0.09010      33.27100      16.51400     29.46600
  281     3     1      0.09010      32.60300      16.40400     27.84000
  282     3     1      0.10100      31.42400      18.02300     30.15000
  283     3     1      0.08820      30.25400      17.48300     27.36700
  284     3     1      0.08820      30.95000      19.00800     27.85300
  285     3     1      0.08610      28.41200      17.74900     28.98600
  286     3     1      0.08610      28.53900      19.13100     27.92700
  287     3     1      0.08900      29.55000      19.02300     30.82000
  288     3     1      0.08900      28.08200      19.79900     30.25200
  289     3     1      0.09060      29.40900      21.33300     28.80900
  290     3     1      0.09060      30.90800      20.57300     29.35300
  291     3     1      0.08990      30.42700      21.23300     31.69500
  292     3     1      0.08990      28.93100      22.01600     31.17200
  293     3     1      0.08980      30.25000      23.51000     29.64800
  294     3     1      0.08980      31.74300      22.72800     30.17600
  295     3     1      0.08970      31.28500      23.43400     32.53000
  296     3     1      0.08970      29.79000      24.21600     32.00400
  297     3     1      0.09000      31.10700      25.71600     30.49300
  298     3     1      0.09000      32.60200      24.93500     31.02100
  299     3     1      0.08950      32.12100      25.61500     33.38400
  300     3     1      0.08950      30.62700      26.39400     32.85500
  301     3     1      0.08990      31.94600      27.92000     31.37400
  302     3     1      0.08990      33.44100      27.14300     31.90400
  303     3     1      0.08860      32.95600      27.81300     34.26800
  304     3     1      0.08860      31.45900      28.58900     33.74200
  305     3     1      0.08080      34.27400      29.36600     32.81700
  306     3     1      0.08080      33.27700      30.25100     33.98800
  307     3     1      0.08080      32.77100      30.14700     32.29000
  308     3     1      0.09000      30.43900      15.43800     28.84200
  309     3     1      0.09000      29.56100      16.33600     30.07600
  310     3     1      0.09070      31.39000      16.00200     31.69900
  311     3     1      0.09070      32.28900      15.05100     30.51100
  312     3     1      0.09030      30.41500      13.44500     30.31700
  313     3     1      0.09030      29.49500      14.36000     31.51800
  314     3     1      0.09010      31.34400      14.01900     33.17600
  315     3     1      0.09010      32.25100      13.09700     31.97200
  316     3     1      0.09040      30.38400      11.44400     31.82200
  317     3     1      0.09040      29.47200      12.36200     33.02600
  318     3     1      0.09020      31.32700      12.04000     34.67700
  319     3     1      0.09020      32.23800      11.12000     33.47300
  320     3     1      0.08990      30.37500       9.45700     33.33400
  321     3     1      0.08990      29.46400      10.37700     34.53600
  322     3     1      0.08990      31.31200      10.04500     36.19100
  323     3     1      0.08990      32.22300       9.12300     34.99000
  324     3     1      0.08960      30.34800       7.46900     34.83900
  325     3     1      0.08960      29.44100       8.39000     36.04200
  326     3     1      0.08860      31.27400       8.02100     37.70900
  327     3     1      0.08860      32.18300       7.10100     36.50500
  328     3     1      0.08080      29.40600       6.36400     37.56900
  329     3     1      0.08080      30.93600       5.58800     38.01700
  330     3     1      0.08080      30.31900       5.44000     36.36000
  331     4     2     -0.23890       6.13700      15.08800     31.19500
  332     4     2     -0.17970       5.89600      16.46100     30.59200
  333     4     2     -0.17860       5.53600      16.35700     29.11400
  334     4     2     -0.18030       5.29800      17.73900     28.51500
  335     4     2     -0.17940       4.93600      17.64300     27.03800
  336     4     2     -0.18010       4.70100      19.03500     26.46200
  337     4     2     -0.18010       4.33600      18.95900     24.98700
  338     4     2     -0.17910       4.10200      20.35700     24.42200
  339     4     2     -0.18140       3.73700      20.26100     22.95100
  340     4     2     -0.17940       3.49100      21.63200     22.33700
  341     4     2     -0.18250       3.06700      21.45200     20.88000
  342     4     2     -0.17560       2.80300      22.79100     20.20200
  343     4     2     -0.10840       2.49700      22.65400     18.69300
  344     4     2     -0.17190       1.21600      21.82500     18.44000
  345     4     2     -0.17570       0.90500      21.53400     16.96400
  346     4     2     -0.17520       2.01400      20.79200     16.21100
  347     4     2     -0.18060       2.30200      19.43000     16.83800
  348     4     2     -0.18030       3.40100      18.68800     16.09300
  349     4     2     -0.18010       3.65100      17.33700     16.75700
  350     4     2     -0.18050       4.75000      16.58000     16.02700
  351     4     2     -0.17970       5.00700      15.22700     16.68100
  352     4     2     -0.18030       6.10900      14.48600     15.93400
  353     4     2     -0.17880       6.38200      13.12800     16.57100
  354     4     2     -0.18000       7.48400      12.39200     15.81600
  355     4     2     -0.23880       7.76100      11.03700     16.44300
  356     4     2     -0.17670       2.34500      24.04200     18.04600
  357     4     2     -0.18190       3.60500      24.89100     18.13300
  358     4     2     -0.18150       3.37100      26.24100     17.47100
  359     4     2     -0.18110       4.63500      27.07800     17.56700
  360     4     2     -0.18030       4.42600      28.43300     16.91300
  361     4     2     -0.18030       5.70000      29.25800     17.01600
  362     4     2     -0.18050       5.50100      30.61800     16.36100
  363     4     2     -0.17980       6.77300      31.45000     16.45700
  364     4     2     -0.17940       6.56500      32.80900     15.79800
  365     4     2     -0.17980       7.82600      33.66000     15.88500
  366     4     2     -0.23880       7.61000      35.01300     15.22800
  367     4     1      0.08070       6.39500      15.18000     32.25400
  368     4     1      0.08070       6.96000      14.57700     30.68600
  369     4     1      0.08070       5.24100      14.46500     31.11600
  370     4     1      0.08840       6.79800      17.07300     30.71300
  371     4     1      0.08840       5.08700      16.96000     31.13900
  372     4     1      0.08970       4.63400      15.74400     28.99500
  373     4     1      0.08970       6.34500      15.85500     28.56900
  374     4     1      0.08940       6.20100      18.35300     28.63400
  375     4     1      0.08940       4.48800      18.24200     29.05900
  376     4     1      0.09000       4.03200      17.03200     26.91500
  377     4     1      0.09000       5.74400      17.14300     26.48700
  378     4     1      0.08970       5.60400      19.64200     26.58800
  379     4     1      0.08970       3.89500      19.53000     27.01600
  380     4     1      0.08990       3.43200      18.35000     24.86000
  381     4     1      0.08990       5.14100      18.46500     24.42900
  382     4     1      0.09050       5.00500      20.96800     24.54800
  383     4     1      0.09050       3.29300      20.85000     24.97700
  384     4     1      0.08930       2.83700      19.64300     22.84000
  385     4     1      0.08930       4.54400      19.75600     22.40500
  386     4     1      0.09070       4.40300      22.23900     22.39600
  387     4     1      0.09070       2.70600      22.15800     22.88900
  388     4     1      0.08980       2.16700      20.83200     20.86300
  389     4     1      0.08980       3.85300      20.91300     20.33500
  390     4     1      0.09010       3.70400      23.39700     20.34600
  391     4     1      0.09010       1.98200      23.31300     20.70600
  392     4     1      0.10100       3.35000      22.14600     18.23400
  393     4     1      0.08820       0.35800      22.35000     18.87800
  394     4     1      0.08820       1.27500      20.86700     18.96400
  395     4     1      0.08610       0.67400      22.46300     16.43400
  396     4     1      0.08610      -0.01200      20.93300     16.92200
  397     4     1      0.08900       2.92700      21.39700     16.17900
  398     4     1      0.08900       1.69700      20.65400     15.17200
  399     4     1      0.09060       1.38400      18.83000     16.83600
  400     4     1      0.09060       2.61300      19.55000     17.88000
  401     4     1      0.08990       4.32200      19.28300     16.10300
  402     4     1      0.08990       3.11400      18.54200     15.04600
  403     4     1      0.08980       2.72600      16.74600     16.75400
  404     4     1      0.08980       3.93800      17.48600     17.80600