LAMMPS data file of the system for full atom style

    4988 atoms
    4930 bonds
    9744 angles
   14094 dihedrals

    2 atom types
    2 bond types
    3 angle types
    2 dihedral types

    0.000000    50.000000 xlo xhi
    0.000000    50.000000 ylo yhi
    0.000000    50.000000 zlo zhi

 Masses 

    1       1.0080
    2      12.0110

 Pair Coeffs 

    1       0.0300       2.5000
    2       0.0660       3.5000

 Bond Coeffs 

    1     268.0000        1.5290
    2     340.0000        1.0900

 Angle Coeffs 

    1      33.0000      107.8000
    2      37.5000      110.7000
    3      58.3500      112.7000

 Dihedral Coeffs 

    1       0.0000        0.0000       0.3000        0.0000
    2       0.8500       -0.2000       0.2000        0.0000

 Atoms 

    1     1     2     -0.16492      45.91000       2.26300     16.09700
    2     1     2     -0.16808      46.76400       1.18700     16.79300
    3     1     2     -0.17737      46.21700       3.70300     16.54100
    4     1     2     -0.18791      45.38300       4.77000     15.81100
    5     1     2     -0.17133      45.77800       4.96700     14.33500
    6     1     2     -0.16724      44.93600       6.03200     13.61400
    7     1     2     -0.16734      45.23700       7.47300     14.06700
    8     1     2     -0.17879      44.41300       8.54100     13.32200
    9     1     2     -0.15508      43.12900       8.98700     14.04600
   10     1     2     -0.15540      42.07300       7.87900     14.21100
   11     1     2     -0.15541      40.72300       8.38600     14.75100
   12     1     2     -0.16057      39.66100       8.66800     13.67300
   13     1     2     -0.18108      40.01800       9.81200     12.71200
   14     1     2     -0.19424      38.86400      10.16000     11.76200
   15     1     2     -0.24205      39.22500      11.29400     10.79300
   16     1     2     -0.15346      46.50200       1.03100     18.30300
   17     1     2     -0.15753      47.50400       1.79700     19.18900
   18     1     2     -0.15785      47.21200       1.68300     20.69800
   19     1     2     -0.15820      46.38800       2.84500     21.29000
   20     1     2     -0.16962      44.95900       3.01000     20.74200
   21     1     2     -0.17473      44.02600       1.83000     21.06600
   22     1     2     -0.18485      42.63600       1.94400     20.41200
   23     1     2     -0.16940      41.80200       3.16400     20.84900
   24     1     2     -0.16239      41.51600       3.25700     22.36000
   25     1     2     -0.15976      40.76600       2.06100     22.98200
   26     1     2     -0.17198      39.30300       1.89800     22.52700
   27     1     2     -0.18979      39.11700       0.93700     21.34000
   28     1     2     -0.25651      37.64100       0.75400     20.96600
   29     1     1      0.08616      37.53400       0.06700     20.12600
   30     1     1      0.08616      37.18500       1.70200     20.67700
   31     1     1      0.08616      37.06700       0.34800     21.79900
   32     1     1      0.09742      39.66000       1.29500     20.46700
   33     1     1      0.09742      39.54700      -0.03500     21.58600
   34     1     1      0.08037      38.86700       2.87300     22.30300
   35     1     1      0.08037      38.72800       1.50700     23.36800
   36     1     1      0.08162      41.32300       1.13400     22.84700
   37     1     1      0.08162      40.75600       2.22400     24.06100
   38     1     1      0.08045      40.95200       4.16900     22.55500
   39     1     1      0.08045      42.46000       3.39100     22.88900
   40     1     1      0.08707      40.85800       3.17200     20.30400
   41     1     1      0.08707      42.30600       4.07800     20.53100
   42     1     1      0.08578      42.75800       1.97100     19.32900
   43     1     1      0.08578      42.07700       1.03000     20.61400
   44     1     1      0.08940      43.92700       1.71800     22.14700
   45     1     1      0.08940      44.47900       0.90100     20.72000
   46     1     1      0.08713      44.53800       3.91900     21.17300
   47     1     1      0.08713      44.98900       3.18800     19.66800
   48     1     1      0.07853      46.93100       3.77700     21.12900
   49     1     1      0.07853      46.33600       2.72300     22.37400
   50     1     1      0.07713      46.76100       0.71900     20.93400
   51     1     1      0.07713      48.17000       1.67600     21.22000
   52     1     1      0.08175      47.57300       2.84400     18.90200
   53     1     1      0.08175      48.49600       1.38200     19.00000
   54     1     1      0.08522      46.57200      -0.02700     18.55800
   55     1     1      0.08522      45.47400       1.31100     18.52800
   56     1     1      0.07217      47.82500       1.35500     16.60000
   57     1     1      0.07217      46.53500       0.23400     16.31400
   58     1     1      0.08286      44.85200       2.04700     16.25400
   59     1     1      0.08286      46.07500       2.17200     15.02300
   60     1     1      0.09180      46.00600       3.79400     17.60600
   61     1     1      0.09180      47.28100       3.91500     16.42300
   62     1     1      0.09002      45.50600       5.71200     16.34500
   63     1     1      0.09002      44.32300       4.52200     15.88500
   64     1     1      0.09055      45.65600       4.02600     13.80000
   65     1     1      0.09055      46.83700       5.21900     14.26000
   66     1     1      0.08817      45.13300       5.95800     12.54300
   67     1     1      0.08817      43.87900       5.79800     13.73200
   68     1     1      0.08375      45.09600       7.58700     15.14200
   69     1     1      0.08375      46.29600       7.66800     13.88900
   70     1     1      0.07454      45.03900       9.42500     13.20200
   71     1     1      0.07454      44.18400       8.21100     12.30700
   72     1     1      0.08327      42.70200       9.82100     13.49000
   73     1     1      0.08327      43.38400       9.39300     15.02600
   74     1     1      0.08303      42.46400       7.14300     14.91400
   75     1     1      0.08303      41.92500       7.34600     13.27000
   76     1     1      0.07605      40.86800       9.26200     15.38600
   77     1     1      0.07605      40.31600       7.61900     15.41200
   78     1     1      0.08157      39.46700       7.75800     13.10300
   79     1     1      0.08157      38.72300       8.91000     14.17600
   80     1     1      0.09245      40.29800      10.69700     13.28600
   81     1     1      0.09245      40.89200       9.53200     12.12200
   82     1     1      0.09300      37.98300      10.44800     12.34000
   83     1     1      0.09300      38.57800       9.27600     11.19000
   84     1     1      0.08140      40.07600      11.02400     10.16900
   85     1     1      0.08140      39.47900      12.20800     11.33000
   86     1     1      0.08140      38.38900      11.52100     10.13100
   87     2     2     -0.16492      16.71300      36.30400     24.94500
   88     2     2     -0.16808      17.80900      36.77100     25.92000
   89     2     2     -0.17737      15.38000      37.06000     25.07800
   90     2     2     -0.18791      14.30600      36.60900     24.07200
   91     2     2     -0.17133      14.59200      37.03900     22.62100
   92     2     2     -0.16724      13.51500      36.57900     21.62400
   93     2     2     -0.16734      12.17800      37.33000     21.76600
   94     2     2     -0.17879      11.11000      36.88800     20.74600
   95     2     2     -0.15508      10.12900      35.82000     21.26100
   96     2     2     -0.15540      10.77800      34.46500     21.59400
   97     2     2     -0.15541       9.76200      33.35200     21.91300
   98     2     2     -0.16057       9.42100      32.43200     20.72700
   99     2     2     -0.18108       8.70300      33.13200     19.56400
  100     2     2     -0.19424       8.24300      32.14500     18.48100
  101     2     2     -0.24205       7.53800      32.84600     17.31300
  102     2     2     -0.15346      17.51800      36.48100     27.40500
  103     2     2     -0.15753      16.92100      37.68100     28.16600
  104     2     2     -0.15785      16.58300      37.37600     29.63900
  105     2     2     -0.15820      15.11700      36.97200     29.89900
  106     2     2     -0.16962      14.64400      35.66900     29.23000
  107     2     2     -0.17473      15.36300      34.40900     29.74200
  108     2     2     -0.18485      14.97300      33.12600     28.98400
  109     2     2     -0.16940      13.48700      32.72900     29.07900
  110     2     2     -0.16239      12.96000      32.49700     30.50800
  111     2     2     -0.15976      13.68000      31.40600     31.32600
  112     2     2     -0.17198      13.47800      29.96600     30.81800
  113     2     2     -0.18979      14.58000      29.47500     29.86500
  114     2     2     -0.25651      14.37300      28.01500     29.43800
  115     2     1      0.08616      15.16700      27.68900     28.76600
  116     2     1      0.08616      13.42400      27.88800     28.91400
  117     2     1      0.08616      14.37200      27.34700     30.29900
  118     2     1      0.09742      14.62400      30.09900     28.97400
  119     2     1      0.09742      15.55300      29.57100     30.35000
  120     2     1      0.08037      12.49600      29.86500     30.35300
  121     2     1      0.08037      13.46100      29.30000     31.68300
  122     2     1      0.08162      14.74000      31.63500     31.44000
  123     2     1      0.08162      13.27600      31.45500     32.33900
  124     2     1      0.08045      11.89700      32.25700     30.45600
  125     2     1      0.08045      13.00900      33.43700     31.05900
  126     2     1      0.08707      13.31100      31.83500     28.48100
  127     2     1      0.08707      12.87800      33.49900     28.60200
  128     2     1      0.08578      15.23900      33.24300     27.93300
  129     2     1      0.08578      15.59200      32.30400     29.34400
  130     2     1      0.08940      15.18200      34.28500     30.81100
  131     2     1      0.08940      16.44000      34.53700     29.64400
  132     2     1      0.08713      13.57500      35.56600     29.41700
  133     2     1      0.08713      14.74000      35.74900     28.14800
  134     2     1      0.07853      14.46600      37.78500     29.57300
  135     2     1      0.07853      14.96000      36.89000     30.97600
  136     2     1      0.07713      17.27300      36.64100     30.05100
  137     2     1      0.07713      16.76800      38.28400     30.21500
  138     2     1      0.08175      16.04500      38.08100     27.65900
  139     2     1      0.08175      17.65800      38.48600     28.14400
  140     2     1      0.08522      18.45400      36.20900     27.89300
  141     2     1      0.08522      16.88500      35.59900     27.49000
  142     2     1      0.07217      18.03100      37.82900     25.77000
  143     2     1      0.07217      18.72600      36.24500     25.65100
  144     2     1      0.08286      16.54200      35.23300     25.07200
  145     2     1      0.08286      17.09800      36.42500     23.93200
  146     2     1      0.09180      14.98100      36.89500     26.07800
  147     2     1      0.09180      15.54500      38.13500     24.99000
  148     2     1      0.09002      13.35300      37.03100     24.39100
  149     2     1      0.09002      14.18400      35.52600     24.12600
  150     2     1      0.09055      15.54500      36.61700     22.30200
  151     2     1      0.09055      14.71000      38.12200     22.56600
  152     2     1      0.08817      13.89500      36.73600     20.61300
  153     2     1      0.08817      13.37200      35.50400     21.71800
  154     2     1      0.08375      11.77900      37.23800     22.77600
  155     2     1      0.08375      12.37200      38.39400     21.62300
  156     2     1      0.07454      10.52100      37.76400     20.47600
  157     2     1      0.07454      11.57800      36.55900     19.81600
  158     2     1      0.08327       9.35600      35.68100     20.50500
  159     2     1      0.08327       9.60600      36.19700     22.14200
  160     2     1      0.08303      11.41400      34.60300     22.46900
  161     2     1      0.08303      11.44200      34.14800     20.78800
  162     2     1      0.07605       8.85400      33.77400     22.34500
  163     2     1      0.07605      10.18700      32.72400     22.69800
  164     2     1      0.08157      10.33000      31.95200     20.36300
  165     2     1      0.08157       8.78700      31.62300     21.09700
  166     2     1      0.09245       7.84300      33.68400     19.94500
  167     2     1      0.09245       9.37300      33.86600     19.11300
  168     2     1      0.09300       7.56700      31.40700     18.91800
  169     2     1      0.09300       9.10000      31.58700     18.10200
  170     2     1      0.08140       8.19900      33.56200     16.82500
  171     2     1      0.08140       6.65100      33.38300     17.65000
  172     2     1      0.08140       7.22100      32.12400     16.56100
  173     3     2     -0.16492      14.10400      43.37800     27.68300
  174     3     2     -0.16808      15.10000      44.51900     27.40500
  175     3     2     -0.17737      12.83600      43.81100     28.43700
  176     3     2     -0.18791      11.83300      42.66900     28.67500
  177     3     2     -0.17133      11.11000      42.19900     27.39900
  178     3     2     -0.16724      10.11300      41.05500     27.64700
  179     3     2     -0.16734       8.84900      41.48800     28.41200
  180     3     2     -0.17879       7.83800      40.34600     28.63300
  181     3     2     -0.15508       7.95600      39.63500     29.99400
  182     3     2     -0.15540       9.28300      38.88400     30.20800
  183     3     2     -0.15541       9.30500      38.01600     31.48000
  184     3     2     -0.16057       8.97500      36.52900     31.25200
  185     3     2     -0.18108       7.54400      36.26200     30.76300
  186     3     2     -0.19424       7.21500      34.76300     30.70600
  187     3     2     -0.24205       5.79000      34.49600     30.20500
  188     3     2     -0.15346      15.76300      45.11800     28.66000
  189     3     2     -0.15753      15.08200      46.40400     29.16700
  190     3     2     -0.15785      15.71300      46.97500     30.45200
  191     3     2     -0.15820      15.02000      46.54800     31.76300
  192     3     2     -0.16962      15.04800      45.04400     32.08400
  193     3     2     -0.17473      16.45900      44.48500     32.33600
  194     3     2     -0.18485      16.49200      42.95800     32.53600
  195     3     2     -0.16940      15.70100      42.43600     33.75200
  196     3     2     -0.16239      16.14100      43.00500     35.11400
  197     3     2     -0.15976      17.61200      42.76100     35.50600
  198     3     2     -0.17198      17.97900      41.29200     35.79100
  199     3     2     -0.18979      18.55200      40.54000     34.57900
  200     3     2     -0.25651      18.96400      39.10300     34.92600
  201     3     1      0.08616      19.37000      38.59200     34.05200
  202     3     1      0.08616      18.11200      38.52200     35.28200
  203     3     1      0.08616      19.72900      39.08700     35.70300
  204     3     1      0.09742      17.82600      40.51100     33.76700
  205     3     1      0.09742      19.41800      41.07700     34.19100
  206     3     1      0.08037      17.11800      40.76000     36.20000
  207     3     1      0.08037      18.73300      41.27800     36.58100
  208     3     1      0.08162      18.29200      43.19800     34.77500
  209     3     1      0.08162      17.79000      43.32600     36.42300
  210     3     1      0.08045      15.49500      42.59400     35.89100
  211     3     1      0.08045      15.94800      44.07700     35.12700
  212     3     1      0.08707      15.75700      41.34800     33.78100
  213     3     1      0.08707      14.64000      42.65000     33.60900
  214     3     1      0.08578      16.11100      42.47600     31.63500
  215     3     1      0.08578      17.53100      42.63600     32.61400
  216     3     1      0.08940      16.91200      44.98800     33.19200
  217     3     1      0.08940      17.10200      44.72200     31.48800
  218     3     1      0.08713      14.44100      44.88100     32.97600
  219     3     1      0.08713      14.55200      44.48300     31.29300
  220     3     1      0.07853      13.98000      46.87700     31.73300
  221     3     1      0.07853      15.47200      47.09300     32.59400
  222     3     1      0.07713      16.78200      46.76500     30.48600
  223     3     1      0.07713      15.64600      48.06300     30.39900
  224     3     1      0.08175      14.01300      46.26100     29.31100
  225     3     1      0.08175      15.16800      47.15600     28.38100
  226     3     1      0.08522      16.79800      45.36100     28.42000
  227     3     1      0.08522      15.82100      44.36100     29.44100
  228     3     1      0.07217      14.63000      45.30100     26.80600
  229     3     1      0.07217      15.88900      44.11100     26.77200
  230     3     1      0.08286      14.60600      42.58100     28.23400
  231     3     1      0.08286      13.82400      42.94300     26.72300
  232     3     1      0.09180      13.12400      44.20200     29.41200
  233     3     1      0.09180      12.34700      44.63400     27.91300
  234     3     1      0.09002      11.09600      43.01800     29.39800
  235     3     1      0.09002      12.34000      41.82800     29.15000
  236     3     1      0.09055      11.84600      41.85000     26.67500
  237     3     1      0.09055      10.59900      43.03900     26.92600
  238     3     1      0.08817       9.81100      40.64800     26.68100
  239     3     1      0.08817      10.62000      40.23900     28.16000
  240     3     1      0.08375       9.10300      41.94200     29.37000
  241     3     1      0.08375       8.35900      42.27400     27.83600
  242     3     1      0.07454       6.83500      40.76900     28.57600
  243     3     1      0.07454       7.89100      39.62100     27.81800
  244     3     1      0.08327       7.12200      38.94000     30.08300
  245     3     1      0.08327       7.81500      40.35900     30.79900
  246     3     1      0.08303      10.07900      39.62400     30.29000
  247     3     1      0.08303       9.52600      38.27700     29.33400
  248     3     1      0.07605       8.65300      38.44000     32.24600
  249     3     1      0.07605      10.31000      38.06300     31.90200
  250     3     1      0.08157       9.69000      36.10000     30.54800
  251     3     1      0.08157       9.13100      35.99900     32.19300
  252     3     1      0.09245       6.83400      36.76700     31.42000
  253     3     1      0.09245       7.41300      36.69200     29.76900
  254     3     1      0.09300       7.33700      34.32000     31.69700
  255     3     1      0.09300       7.92700      34.25400     30.05400
  256     3     1      0.08140       5.64400      34.88900     29.19900
  257     3     1      0.08140       5.04800      34.95800     30.85600
  258     3     1      0.08140       5.58300      33.42600     30.17500
  259     4     2     -0.16492      43.51600       7.68400     19.87000
  260     4     2     -0.16808      44.00500       6.43400     20.62500
  261     4     2     -0.17737      43.79300       9.01300     20.59400
  262     4     2     -0.18791      43.33300      10.25500     19.81200
  263     4     2     -0.17133      44.19300      10.56400     18.57300
  264     4     2     -0.16724      43.72200      11.80500     17.79600
  265     4     2     -0.16734      43.99100      13.13400     18.52800
  266     4     2     -0.17879      43.54500      14.37700     17.73400
  267     4     2     -0.15508      42.14300      14.90300     18.09300
  268     4     2     -0.15540      40.99500      13.93200     17.76500
  269     4     2     -0.15541      39.59400      14.54800     17.94000
  270     4     2     -0.16057      38.96000      15.08700     16.64500
  271     4     2     -0.18108      39.70400      16.27500     16.01800
  272     4     2     -0.19424      38.94700      16.87600     14.82500
  273     4     2     -0.24205      39.69700      18.05500     14.19100
  274     4     2     -0.15346      43.26400       6.14500     21.94400
  275     4     2     -0.15753      43.99700       6.66800     23.19500
  276     4     2     -0.15785      43.23100       6.42400     24.51000
  277     4     2     -0.15820      42.36900       7.60900     24.99000
  278     4     2     -0.16962      41.20900       8.02100     24.06600
  279     4     2     -0.17473      40.12000       6.94500     23.91400
  280     4     2     -0.18485      39.02600       7.31400     22.89500
  281     4     2     -0.16940      38.20800       8.57600     23.23400
  282     4     2     -0.16239      37.46700       8.53400     24.58400
  283     4     2     -0.15976      36.45400       7.38400     24.76500
  284     4     2     -0.17198      35.20400       7.46700     23.86900
  285     4     2     -0.18979      35.31900       6.67900     22.55400
  286     4     2     -0.25651      34.02800       6.73400     21.72700
  287     4     1      0.08616      34.13300       6.16700     20.80100
  288     4     1      0.08616      33.77500       7.76100     21.45700
  289     4     1      0.08616      33.18500       6.31600     22.27700
  290     4     1      0.09742      36.14100       7.05900     21.94900
  291     4     1      0.09742      35.56000       5.63800     22.77100
  292     4     1      0.08037      34.95000       8.51000     23.67000
  293     4     1      0.08037      34.35800       7.06200     24.42900
  294     4     1      0.08162      36.94100       6.41400     24.66900
  295     4     1      0.08162      36.11700       7.42500     25.80200
  296     4     1      0.08045      36.95400       9.48500     24.73200
  297     4     1      0.08045      38.20200       8.48300     25.38800
  298     4     1      0.08707      37.49100       8.76800     22.43600
  299     4     1      0.08707      38.86700       9.44500     23.22300
  300     4     1      0.08578      39.48800       7.44600     21.91500
  301     4     1      0.08578      38.35300       6.46400     22.77900
  302     4     1      0.08940      39.67300       6.72600     24.88500
  303     4     1      0.08940      40.57500       6.01000     23.58800
  304     4     1      0.08713      40.75600       8.92400     24.48000
  305     4     1      0.08713      41.59400       8.31400     23.09000
  306     4     1      0.07853      43.01600       8.47500     25.14200
  307     4     1      0.07853      41.96500       7.37500     25.97700
  308     4     1      0.07713      42.64400       5.50800     24.45300
  309     4     1      0.07713      43.96900       6.23300     25.29100
  310     4     1      0.08175      44.24600       7.72300     23.10100
  311     4     1      0.08175      44.95600       6.15000     23.25600
  312     4     1      0.08522      43.15400       5.06500     22.04900
  313     4     1      0.08522      42.24700       6.53100     21.88600
  314     4     1      0.07217      45.08200       6.48300     20.79000
  315     4     1      0.07217      43.85500       5.58000     19.96300
  316     4     1      0.08286      42.44700       7.59300     19.66600
  317     4     1      0.08286      44.00400       7.69400     18.89600
  318     4     1      0.09180      43.26400       9.01000     21.54700
  319     4     1      0.09180      44.85400       9.09600     20.83700
  320     4     1      0.09002      43.36400      11.10700     20.49200
  321     4     1      0.09002      42.28700      10.14200     19.52600
  322     4     1      0.09055      44.16300       9.71300     17.89200
  323     4     1      0.09055      45.23900      10.68200     18.86000
  324     4     1      0.08817      44.24100      11.82700     16.83700
  325     4     1      0.08817      42.66600      11.70000     17.55300
  326     4     1      0.08375      43.52600      13.14300     19.51400
  327     4     1      0.08375      45.06400      13.20700     18.70900
  328     4     1      0.07454      44.25300      15.18000     17.94200
  329     4     1      0.07454      43.62200      14.19700     16.66000
  330     4     1      0.08327      41.99200      15.84400     17.56400
  331     4     1      0.08327      42.10900      15.16000     19.15300
  332     4     1      0.08303      41.07500      13.07700     18.43700
  333     4     1      0.08303      41.10600      13.53300     16.75500
  334     4     1      0.07605      39.60700      15.32000     18.71100
  335     4     1      0.07605      38.93100      13.77100     18.32600
  336     4     1      0.08157      38.87600      14.28000     15.91500
  337     4     1      0.08157      37.93600      15.39100     16.87000
  338     4     1      0.09245      39.86500      17.04500     16.77400
  339     4     1      0.09245      40.69100      15.95100     15.68500
  340     4     1      0.09300      37.95800      17.21000     15.14500
  341     4     1      0.09300      38.78000      16.10700     14.06900
  342     4     1      0.08140      40.67500      17.74800     13.82100
  343     4     1      0.08140      39.84800      18.86100     14.90900
  344     4     1      0.08140      39.13900      18.46300     13.34800
  345     5     2     -0.16492      12.39300      12.15700     23.52200
  346     5     2     -0.16808      13.15200      11.19800     22.58700
  347     5     2     -0.17737      13.29800      13.06300     24.37300
  348     5     2     -0.18791      12.52700      14.04200     25.27500
  349     5     2     -0.17133      11.83400      15.18300     24.50600
  350     5     2     -0.16724      11.06300      16.15300     25.41600
  351     5     2     -0.16734      11.97100      17.05200     26.27600
  352     5     2     -0.17879      11.19500      18.04400     27.16500
  353     5     2     -0.15508      10.95000      17.56200     28.60700
  354     5     2     -0.15540      10.05000      16.31900     28.71900
  355     5     2     -0.15541       9.65100      15.97200     30.16500
  356     5     2     -0.16057       8.27200      16.50300     30.59900
  357     5     2     -0.18108       8.16500      18.03400     30.64600
  358     5     2     -0.19424       6.83000      18.51000     31.23600
  359     5     2     -0.24205       6.71800      20.03900     31.27100
  360     5     2     -0.15346      13.97000      10.10800     23.30600
  361     5     2     -0.15753      15.46200      10.45700     23.46500
  362     5     2     -0.15785      16.27100       9.39000     24.22900
  363     5     2     -0.15820      16.44000       9.65900     25.73800
  364     5     2     -0.16962      15.14700       9.67800     26.57200
  365     5     2     -0.17473      14.41900       8.32400     26.62400
  366     5     2     -0.18485      13.06500       8.37900     27.35700
  367     5     2     -0.16940      13.13700       8.78100     28.84400
  368     5     2     -0.16239      14.00800       7.86900     29.72900
  369     5     2     -0.15976      13.60200       6.38200     29.77400
  370     5     2     -0.17198      12.26000       6.09000     30.47100
  371     5     2     -0.18979      11.05700       6.01800     29.51600
  372     5     2     -0.25651       9.75600       5.65900     30.24400
  373     5     1      0.08616       8.91900       5.61200     29.54700
  374     5     1      0.08616       9.51000       6.40300     31.00400
  375     5     1      0.08616       9.83100       4.69000     30.73700
  376     5     1      0.09742      10.92100       6.96600     28.99800
  377     5     1      0.09742      11.25000       5.27600     28.74000
  378     5     1      0.08037      12.07900       6.82000     31.26200
  379     5     1      0.08037      12.34400       5.12600     30.97700
  380     5     1      0.08162      13.63100       5.93600     28.77900
  381     5     1      0.08162      14.38200       5.86100     30.33300
  382     5     1      0.08045      14.01100       8.26600     30.74500
  383     5     1      0.08045      15.04300       7.94000     29.39600
  384     5     1      0.08707      12.12900       8.82600     29.25600
  385     5     1      0.08707      13.50800       9.80400     28.92200
  386     5     1      0.08578      12.41000       9.07700     26.83500
  387     5     1      0.08578      12.57700       7.40800     27.26700
  388     5     1      0.08940      15.06400       7.57000     27.07900
  389     5     1      0.08940      14.23200       7.97100     25.61100
  390     5     1      0.08713      15.40900       9.97600     27.58900
  391     5     1      0.08713      14.47800      10.45600     26.20800
  392     5     1      0.07853      16.95100      10.61500     25.86900
  393     5     1      0.07853      17.11700       8.91200     26.15600
  394     5     1      0.07713      15.86500       8.39400     24.05000
  395     5     1      0.07713      17.27300       9.36300     23.79800
  396     5     1      0.08175      15.59800      11.43000     23.93200
  397     5     1      0.08175      15.88700      10.55600     22.46400
  398     5     1      0.08522      13.90200       9.18700     22.72500
  399     5     1      0.08522      13.50800       9.87500     24.26400
  400     5     1      0.07217      13.78000      11.75600     21.89100
  401     5     1      0.07217      12.40700      10.70000     21.96300
  402     5     1      0.08286      11.72900      11.58500     24.17200
  403     5     1      0.08286      11.74100      12.77500     22.90300
  404     5     1      0.09180      13.91200      12.43700     25.02000
  405     5     1      0.09180      13.99200      13.61100     23.73400