LAMMPS data file of the system for full atom style

    4968 atoms
    4968 bonds
    9522 angles
   13869 dihedrals
     414 impropers

    4 atom types
    5 bond types
    8 angle types
    6 dihedral types
    1 improper types

    0.000000    50.000000 xlo xhi
    0.000000    50.000000 ylo yhi
    0.000000    50.000000 zlo zhi

 Masses 

    1       1.0080
    2       1.0080
    3      12.0110
    4      12.0110

 Pair Coeffs 

    1       0.0300       2.4200
    2       0.0300       2.5000
    3       0.0660       3.5000
    4       0.0700       3.5500

 Bond Coeffs 

    1     268.0000        1.5290
    2     317.0000        1.5100
    3     340.0000        1.0900
    4     367.0000        1.0800
    5     469.0000        1.4000

 Angle Coeffs 

    1      33.0000      107.8000
    2      35.0000      109.5000
    3      35.0000      120.0000
    4      37.5000      110.7000
    5      58.3500      112.7000
    6      63.0000      114.0000
    7      63.0000      120.0000
    8      70.0000      120.0000

 Dihedral Coeffs 

    1      -0.2500        0.0000       0.0000        0.0000
    2       0.0000        0.0000       0.0000        0.0000
    3       0.0000        0.0000       0.3000        0.0000
    4       0.0000        0.0000       0.4620        0.0000
    5       0.0000        7.2500       0.0000        0.0000
    6       0.8500       -0.2000       0.2000        0.0000

 Improper Coeffs 

    1       2.5000     -1     2

 Atoms 

    1     1     3     -0.18631      22.33500      19.92400     15.80000
    2     1     3     -0.19832      21.78300      18.98200     14.72000
    3     1     3     -0.18485      23.85500      20.11800     15.68300
    4     1     3     -0.18628      24.46100      20.96900     16.81400
    5     1     3     -0.17946      23.93100      22.41400     16.90700
    6     1     3     -0.19034      24.09800      23.25600     15.62900
    7     1     3     -0.18519      25.56100      23.45200     15.20400
    8     1     3     -0.18220      25.69600      24.39300     13.99500
    9     1     3     -0.17675      27.13400      24.51400     13.45700
   10     1     3     -0.18172      28.17000      25.06100     14.45600
   11     1     3     -0.18252      27.87600      26.49500     14.93300
   12     1     3     -0.18174      28.91800      27.04700     15.92400
   13     1     3     -0.17726      30.35000      27.18800     15.36800
   14     1     3     -0.19291      30.48100      28.08200     14.12200
   15     1     3     -0.24442      30.05300      29.53700     14.35800
   16     1     3     -0.17829      20.26400      18.79100     14.83100
   17     1     3     -0.17155      19.71500      17.84000     13.75300
   18     1     3     -0.17003      18.17800      17.72600     13.74100
   19     1     3     -0.06972      17.53500      17.14600     15.02000
   20     1     3     -0.23562      18.04200      15.73100     15.35100
   21     1     4     -0.07779      16.01600      17.20400     14.95400
   22     1     4     -0.13293      15.31000      16.40000     14.03300
   23     1     4     -0.13715      13.90400      16.45500     13.96900
   24     1     4     -0.14657      13.19400      17.31600     14.82800
   25     1     4     -0.13715      13.89300      18.12100     15.74900
   26     1     4     -0.13293      15.29800      18.06600     15.81100
   27     1     1      0.12976      15.84600      15.73800     13.36900
   28     1     1      0.13759      13.37200      15.83700     13.26200
   29     1     1      0.13631      12.11500      17.35900     14.78000
   30     1     1      0.13759      13.34900      18.78300     16.40800
   31     1     1      0.12976      15.82000      18.68900     16.52200
   32     1     2      0.11094      17.82600      17.78600     15.85300
   33     1     2      0.08676      17.86500      15.03700     14.53100
   34     1     2      0.08676      17.53300      15.33800     16.23100
   35     1     2      0.08676      19.10900      15.72600     15.57000
   36     1     2      0.09491      17.88200      17.11800     12.88500
   37     1     2      0.09491      17.75400      18.71400     13.55100
   38     1     2      0.09072      20.03300      18.20200     12.77400
   39     1     2      0.09072      20.16700      16.85500     13.85900
   40     1     2      0.09443      20.02700      18.40400     15.82300
   41     1     2      0.09443      19.76800      19.76000     14.75000
   42     1     2      0.08951      22.27800      18.01200     14.79400
   43     1     2      0.08951      22.03000      19.37800     13.73400
   44     1     2      0.09770      22.09300      19.52900     16.78700
   45     1     2      0.09770      21.83400      20.89000     15.72200
   46     1     2      0.09064      24.10300      20.55300     14.71400
   47     1     2      0.09064      24.33900      19.14000     15.69400
   48     1     2      0.08884      25.54600      20.98700     16.70100
   49     1     2      0.08884      24.28500      20.46700     17.76800
   50     1     2      0.09286      22.87500      22.39500     17.18400
   51     1     2      0.09286      24.43200      22.91900     17.73400
   52     1     2      0.09316      23.52700      22.81300     14.81200
   53     1     2      0.09316      23.64600      24.23400     15.80400
   54     1     2      0.10218      26.00700      22.48800     14.95800
   55     1     2      0.10218      26.12800      23.85100     16.04600
   56     1     2      0.08899      25.06100      24.02400     13.18800
   57     1     2      0.08899      25.30300      25.37900     14.24400
   58     1     2      0.08583      27.46400      23.53200     13.11000
   59     1     2      0.08583      27.12700      25.14800     12.56900
   60     1     2      0.09006      29.14400      25.04100     13.96600
   61     1     2      0.09006      28.25900      24.39300     15.31200
   62     1     2      0.09391      27.78100      27.16400     14.07800
   63     1     2      0.09391      26.90500      26.51500     15.42900
   64     1     2      0.09044      28.94400      26.40300     16.80500
   65     1     2      0.09044      28.57800      28.01600     16.29100
   66     1     2      0.08905      30.99400      27.58200     16.15700
   67     1     2      0.08905      30.75200      26.20000     15.14200
   68     1     2      0.09021      31.52200      28.07300     13.79600
   69     1     2      0.09021      29.91400      27.65800     13.29200
   70     1     2      0.08366      30.60600      29.98400     15.18400
   71     1     2      0.08366      30.23600      30.14400     13.47100
   72     1     2      0.08366      28.98900      29.61000     14.58700
   73     2     3     -0.18631      43.83600      25.77500     45.68600
   74     2     3     -0.19832      43.25600      24.36900     45.48500
   75     2     3     -0.18485      45.16600      25.97000     44.94000
   76     2     3     -0.18628      45.83400      27.33200     45.20700
   77     2     3     -0.17946      45.01000      28.56300     44.78000
   78     2     3     -0.19034      44.59800      28.59400     43.29600
   79     2     3     -0.18519      45.78900      28.62100     42.32400
   80     2     3     -0.18220      45.34200      28.77000     40.86100
   81     2     3     -0.17675      46.49600      28.67200     39.84500
   82     2     3     -0.18172      47.60100      29.73400     39.99400
   83     2     3     -0.18252      47.10600      31.17800     39.79100
   84     2     3     -0.18174      48.21400      32.24000     39.92900
   85     2     3     -0.17726      49.35100      32.14900     38.89200
   86     2     3     -0.19291      48.90300      32.23800     37.42200
   87     2     3     -0.24442      48.21200      33.56100     37.06700
   88     2     3     -0.17829      41.92500      24.17300     46.22500
   89     2     3     -0.17155      41.35000      22.76000     46.02700
   90     2     3     -0.17003      39.94900      22.56200     46.63900
   91     2     3     -0.06972      39.85400      22.72200     48.17200
   92     2     3     -0.23562      40.76600      21.74300     48.93000
   93     2     4     -0.07779      38.41200      22.64100     48.65200
   94     2     4     -0.13293      37.69800      21.42600     48.56600
   95     2     4     -0.13715      36.36300      21.35100     49.00700
   96     2     4     -0.14657      35.73100      22.49200     49.53700
   97     2     4     -0.13715      36.43700      23.70800     49.62400
   98     2     4     -0.13293      37.77300      23.78200     49.18300
   99     2     1      0.12976      38.17400      20.54600     48.16000
  100     2     1      0.13759      35.82400      20.41700     48.93800
  101     2     1      0.13631      34.70600      22.43500     49.87600
  102     2     1      0.13759      35.95300      24.58500     50.02900
  103     2     1      0.12976      38.30100      24.72100     49.25500
  104     2     2      0.11094      40.19800      23.72700     48.42000
  105     2     2      0.08676      40.54500      20.70700     48.67800
  106     2     2      0.08676      40.63800      21.85400     50.00700
  107     2     2      0.08676      41.81900      21.92300     48.71400
  108     2     2      0.09491      39.58600      21.57100     46.36000
  109     2     2      0.09491      39.25700      23.26400     46.16800
  110     2     2      0.09072      41.28100      22.55700     44.95700
  111     2     2      0.09072      42.04300      22.01600     46.42000
  112     2     2      0.09443      42.07800      24.36600     47.28700
  113     2     2      0.09443      41.20300      24.91300     45.87600
  114     2     2      0.08951      43.97600      23.62400     45.82800
  115     2     2      0.08951      43.11000      24.18600     44.41800
  116     2     2      0.09770      43.98600      25.96000     46.75100
  117     2     2      0.09770      43.11100      26.51400     45.34300
  118     2     2      0.09064      45.01700      25.83100     43.86900
  119     2     2      0.09064      45.86000      25.18400     45.24200
  120     2     2      0.08884      46.80300      27.35400     44.70800
  121     2     2      0.08884      46.06100      27.41300     46.27200
  122     2     2      0.09286      44.11300      28.63100     45.39800
  123     2     2      0.09286      45.58000      29.46400     45.00900
  124     2     2      0.09316      43.95000      27.74700     43.07000
  125     2     2      0.09316      43.98600      29.48300     43.13000
  126     2     2      0.10218      46.37200      27.70700     42.42900
  127     2     2      0.10218      46.45200      29.44500     42.59300
  128     2     2      0.08899      44.61900      27.98700     40.63100
  129     2     2      0.08899      44.80400      29.70900     40.72800
  130     2     2      0.08583      46.94800      27.68100     39.92000
  131     2     2      0.08583      46.08400      28.72700     38.83600
  132     2     2      0.09006      48.37200      29.51400     39.25500
  133     2     2      0.09006      48.08900      29.63900     40.96400
  134     2     2      0.09391      46.61400      31.27400     38.82400
  135     2     2      0.09391      46.33900      31.40100     40.53300
  136     2     2      0.09044      48.64300      32.17400     40.93000
  137     2     2      0.09044      47.76100      33.23100     39.87900
  138     2     2      0.08905      50.07200      32.94300     39.09200
  139     2     2      0.08905      49.90600      31.22100     39.04000
  140     2     2      0.09021      49.78000      32.11900     36.78400
  141     2     2      0.09021      48.25000      31.40000     37.17500
  142     2     2      0.08366      48.84500      34.41600     37.30400
  143     2     2      0.08366      47.98300      33.60600     36.00200
  144     2     2      0.08366      47.27100      33.68000     37.60500
  145     3     3     -0.18631      33.59300      38.96000     24.24900
  146     3     3     -0.19832      32.39500      39.22300     25.17200
  147     3     3     -0.18485      34.60400      40.11700     24.26100
  148     3     3     -0.18628      35.76400      39.93800     23.26400
  149     3     3     -0.17946      36.64900      38.69800     23.50000
  150     3     3     -0.19034      37.29400      38.60900     24.89600
  151     3     3     -0.18519      38.24200      39.77600     25.21500
  152     3     3     -0.18220      38.95500      39.59400     26.56400
  153     3     3     -0.17675      39.81500      40.80200     26.98100
  154     3     3     -0.18172      40.95900      41.16500     26.01700
  155     3     3     -0.18252      42.01100      40.05300     25.85300
  156     3     3     -0.18174      43.16000      40.42000     24.89600
  157     3     3     -0.17726      44.03100      41.61400     25.33500
  158     3     3     -0.19291      44.70100      41.46300     26.71300
  159     3     3     -0.24442      45.66800      40.27500     26.80100
  160     3     3     -0.17829      31.38600      38.06600     25.16700
  161     3     3     -0.17155      30.18300      38.33600     26.08700
  162     3     3     -0.17003      29.21300      37.14500     26.21800
  163     3     3     -0.06972      28.51200      36.70100     24.91500
  164     3     3     -0.23562      27.68300      37.82700     24.27300
  165     3     4     -0.07779      27.68600      35.44100     25.12900
  166     3     4     -0.13293      26.53000      35.47300     25.94000
  167     3     4     -0.13715      25.76800      34.30700     26.14100
  168     3     4     -0.14657      26.15700      33.09800     25.53300
  169     3     4     -0.13715      27.31000      33.05800     24.72400
  170     3     4     -0.13293      28.07200      34.22500     24.52400
  171     3     1      0.12976      26.22500      36.39500     26.41100
  172     3     1      0.13759      24.88500      34.34000     26.76200
  173     3     1      0.13631      25.57200      32.20100     25.68600
  174     3     1      0.13759      27.61000      32.13100     24.25700
  175     3     1      0.12976      28.95300      34.18000     23.90200
  176     3     2      0.11094      29.28800      36.43500     24.19700
  177     3     2      0.08676      26.92800      38.21300     24.95600
  178     3     2      0.08676      27.16700      37.46400     23.38400
  179     3     2      0.08676      28.31000      38.66100     23.96000
  180     3     2      0.09491      28.45700      37.39400     26.96400
  181     3     2      0.09491      29.75600      36.29300     26.63200
  182     3     2      0.09072      30.55400      38.57900     27.08400
  183     3     2      0.09072      29.64900      39.22500     25.75200
  184     3     2      0.09443      31.04200      37.90100     24.14500
  185     3     2      0.09443      31.88400      37.14600     25.47800
  186     3     2      0.08951      31.89500      40.14300     24.86800
  187     3     2      0.08951      32.75300      39.38900     26.19000
  188     3     2      0.09770      33.23900      38.79600     23.23000
  189     3     2      0.09770      34.08600      38.03700     24.55700
  190     3     2      0.09064      34.99600      40.25900     25.26800
  191     3     2      0.09064      34.08400      41.04400     24.01700
  192     3     2      0.08884      36.38500      40.83500     23.27900
  193     3     2      0.08884      35.35700      39.89200     22.25100
  194     3     2      0.09286      36.06300      37.79500     23.32300
  195     3     2      0.09286      37.43500      38.67800     22.74400
  196     3     2      0.09316      36.52000      38.53500     25.66100
  197     3     2      0.09316      37.85300      37.67400     24.95500
  198     3     2      0.10218      37.68300      40.71200     25.22800
  199     3     2      0.10218      38.98000      39.86600     24.41700
  200     3     2      0.08899      38.20600      39.42600     27.34000
  201     3     2      0.08899      39.56200      38.68900     26.54700
  202     3     2      0.08583      39.16600      41.67200     27.10100
  203     3     2      0.08583      40.23300      40.61300     27.97200
  204     3     2      0.09006      41.44400      42.06200     26.40200
  205     3     2      0.09006      40.55700      41.44500     25.04300
  206     3     2      0.09391      42.41000      39.76800     26.82600
  207     3     2      0.09391      41.52700      39.15700     25.46200
  208     3     2      0.09044      42.74500      40.63100     23.90900
  209     3     2      0.09044      43.79600      39.54500     24.75500
  210     3     2      0.08905      44.80300      41.78000     24.58200
  211     3     2      0.08905      43.43100      42.52600     25.32800
  212     3     2      0.09021      45.25100      42.37900     26.93400
  213     3     2      0.09021      43.94400      41.38400     27.49400
  214     3     2      0.08366      46.43600      40.33000     26.03000
  215     3     2      0.08366      46.17200      40.25500     27.76800
  216     3     2      0.08366      45.14600      39.32300     26.68900
  217     4     3     -0.18631      35.76000      26.41100      5.26500
  218     4     3     -0.19832      37.03300      25.97800      6.00600
  219     4     3     -0.18485      35.09000      27.63100      5.91800
  220     4     3     -0.18628      33.75100      28.02600      5.26900
  221     4     3     -0.17946      33.83500      28.42800      3.78300
  222     4     3     -0.19034      34.79800      29.58800      3.47100
  223     4     3     -0.18519      34.42400      30.90700      4.16400
  224     4     3     -0.18220      35.33700      32.06800      3.73800
  225     4     3     -0.17675      35.07700      33.37800      4.50700
  226     4     3     -0.18172      33.66100      33.96200      4.36000
  227     4     3     -0.18252      33.29400      34.35000      2.91600
  228     4     3     -0.18174      31.88100      34.94500      2.77200
  229     4     3     -0.17726      31.63900      36.26900      3.52400
  230     4     3     -0.19291      32.58900      37.41900      3.14400
  231     4     3     -0.24442      32.49600      37.83300      1.66900
  232     4     3     -0.17829      37.70600      24.76300      5.35200
  233     4     3     -0.17155      38.97700      24.32800      6.10000
  234     4     3     -0.17003      39.76100      23.19800      5.40200
  235     4     3     -0.06972      39.01600      21.85400      5.25200
  236     4     3     -0.23562      38.57500      21.26400      6.60300
  237     4     4     -0.07779      39.82400      20.85800      4.43400
  238     4     4     -0.13293      41.02800      20.32500      4.94400
  239     4     4     -0.13715      41.77800      19.40600      4.18600
  240     4     4     -0.14657      41.32900      19.01300      2.91100
  241     4     4     -0.13715      40.13000      19.54100      2.39600
  242     4     4     -0.13293      39.38000      20.46100      3.15400
  243     4     1      0.12976      41.38100      20.62300      5.92000
  244     4     1      0.13759      42.69800      19.00300      4.58400
  245     4     1      0.13631      41.90500      18.30700      2.32900
  246     4     1      0.13759      39.78400      19.24100      1.41600
  247     4     1      0.12976      38.46300      20.85800      2.74600
  248     4     2      0.11094      38.10500      22.04500      4.68200
  249     4     2      0.08676      39.42100      21.11600      7.27300
  250     4     2      0.08676      38.09500      20.29600      6.46000
  251     4     2      0.08676      37.85500      21.90600      7.10800
  252     4     2      0.09491      40.69000      23.03200      5.94900
  253     4     2      0.09491      40.06800      23.54300      4.41300
  254     4     2      0.09072      39.64100      25.18900      6.19400
  255     4     2      0.09072      38.73000      24.04100      7.12200
  256     4     2      0.09443      36.99400      23.93800      5.31800
  257     4     2      0.09443      37.95600      24.99900      4.31600
  258     4     2      0.08951      36.79000      25.74500      7.04300
  259     4     2      0.08951      37.73600      26.81300      6.03500
  260     4     2      0.09770      35.05300      25.58000      5.23700
  261     4     2      0.09770      36.00900      26.64000      4.22800
  262     4     2      0.09064      35.77400      28.48000      5.91200
  263     4     2      0.09064      34.90800      27.41200      6.97200
  264     4     2      0.08884      33.30900      28.84200      5.84100
  265     4     2      0.08884      33.04900      27.19600      5.37000
  266     4     2      0.09286      34.12200      27.55900      3.18800
  267     4     2      0.09286      32.83600      28.69200      3.43400
  268     4     2      0.09316      35.81900      29.30600      3.72900
  269     4     2      0.09316      34.80400      29.74600      2.39000
  270     4     2      0.10218      34.48100      30.78500      5.24600
  271     4     2      0.10218      33.38600      31.15000      3.93400
  272     4     2      0.08899      36.37600      31.77900      3.90000
  273     4     2      0.08899      35.24800      32.23900      2.66500
  274     4     2      0.08583      35.28100      33.21100      5.56700
  275     4     2      0.08583      35.80500      34.12600      4.18600
  276     4     2      0.09006      33.60100      34.84700      4.99400
  277     4     2      0.09006      32.92200      33.26600      4.75900
  278     4     2      0.09391      34.03500      35.04200      2.51500
  279     4     2      0.09391      33.34800      33.46400      2.28300
  280     4     2      0.09044      31.15100      34.20800      3.11100
  281     4     2      0.09044      31.66500      35.08900      1.71200
  282     4     2      0.08905      30.60900      36.58700      3.35100
  283     4     2      0.08905      31.70200      36.09400      4.59900
  284     4     2      0.09021      32.35300      38.28400      3.76600
  285     4     2      0.09021      33.61800      37.15600      3.39200
  286     4     2      0.08366      31.47600      38.10200      1.39600
  287     4     2      0.08366      33.13000      38.69700      1.46900
  288     4     2      0.08366      32.82300      37.03200      1.00600
  289     5     3     -0.18631      22.81400      12.50500     12.25000
  290     5     3     -0.19832      22.90100      13.23300     10.90100
  291     5     3     -0.18485      21.84500      13.19500     13.22300
  292     5     3     -0.18628      21.81300      12.55700     14.62400
  293     5     3     -0.17946      21.36100      11.08400     14.66600
  294     5     3     -0.19034      19.97200      10.80700     14.06100
  295     5     3     -0.18519      18.82800      11.54100     14.77800
  296     5     3     -0.18220      17.44800      11.15000     14.22300
  297     5     3     -0.17675      16.28400      11.95800     14.82500
  298     5     3     -0.18172      16.10700      11.82900     16.34900
  299     5     3     -0.18252      15.79200      10.39700     16.82000
  300     5     3     -0.18174      15.60500      10.27000     18.34300
  301     5     3     -0.17726      14.42100      11.06200     18.93400
  302     5     3     -0.19291      13.04400      10.71700     18.33900
  303     5     3     -0.24442      12.62800       9.25600     18.55300
  304     5     3     -0.17829      23.86500      12.54300      9.92400
  305     5     3     -0.17155      23.95600      13.27800      8.57700
  306     5     3     -0.17003      24.80600      12.54700      7.51900
  307     5     3     -0.06972      26.29800      12.35500      7.86800
  308     5     3     -0.23562      27.02600      13.68800      8.11800
  309     5     4     -0.07779      27.00900      11.50800      6.82300
  310     5     4     -0.13293      27.20500      12.00200      5.51500
  311     5     4     -0.13715      27.86000      11.21700      4.54700
  312     5     4     -0.14657      28.32500       9.93000      4.88100
  313     5     4     -0.13715      28.13100       9.43100      6.18300
  314     5     4     -0.13293      27.47600      10.21700      7.15100
  315     5     1      0.12976      26.85100      12.98700      5.25000
  316     5     1      0.13759      28.00600      11.60300      3.54900
  317     5     1      0.13631      28.82800       9.32700      4.13800
  318     5     1      0.13759      28.48600       8.44300      6.44100
  319     5     1      0.12976      27.33400       9.82000      8.14500
  320     5     2      0.11094      26.34800      11.79200      8.79900
  321     5     2      0.08676      26.95500      14.35400      7.25900
  322     5     2      0.08676      28.08400      13.51600      8.31500
  323     5     2      0.08676      26.62100      14.21200      8.98300
  324     5     2      0.09491      24.72600      13.08900      6.57500
  325     5     2      0.09491      24.36100      11.56800      7.32700
  326     5     2      0.09072      22.94900      13.39800      8.17500
  327     5     2      0.09072      24.32900      14.29100      8.72800
  328     5     2      0.09443      24.85200      12.48400     10.38300
  329     5     2      0.09443      23.53900      11.51500      9.75800
  330     5     2      0.08951      23.22300      14.26300     11.06200
  331     5     2      0.08951      21.90700      13.28800     10.45400
  332     5     2      0.09770      23.80600      12.45200     12.70100
  333     5     2      0.09770      22.49500      11.47600     12.08100
  334     5     2      0.09064      20.84100      13.21400     12.79900
  335     5     2      0.09064      22.13600      14.24100     13.33000
  336     5     2      0.08884      21.16700      13.15300     15.26900
  337     5     2      0.08884      22.80700      12.63300     15.07000
  338     5     2      0.09286      22.10000      10.46300     14.15600
  339     5     2      0.09286      21.37100      10.74300     15.70200
  340     5     2      0.09316      19.97100      11.05800     12.99900
  341     5     2      0.09316      19.78700       9.73300     14.10800
  342     5     2      0.10218      18.96100      12.61800     14.68000
  343     5     2      0.10218      18.87200      11.31800     15.84500
  344     5     2      0.08899      17.44600      11.30400     13.14300
  345     5     2      0.08899      17.27700      10.08300     14.36300
  346     5     2      0.08583      16.41900      13.01200     14.57500
  347     5     2      0.08583      15.35600      11.66000     14.33400
  348     5     2      0.09006      15.29200      12.48900     16.64500
  349     5     2      0.09006      16.99000      12.20600     16.86500
  350     5     2      0.09391      14.91200      10.01700     16.30100
  351     5     2      0.09391      16.61100       9.73700     16.53000
  352     5     2      0.09044      16.52400      10.58700     18.84000
  353     5     2      0.09044      15.49500       9.21500     18.59800
  354     5     2      0.08905      14.39300      10.89800     20.01200
  355     5     2      0.08905      14.60300      12.13100     18.81600
  356     5     2      0.09021      12.29500      11.36500     18.79800
  357     5     2      0.09021      13.02100      10.95700     17.27500
  358     5     2      0.08366      12.64200       8.99000     19.61100
  359     5     2      0.08366      11.61700       9.08100     18.18300
  360     5     2      0.08366      13.28900       8.56800     18.02500
  361     6     3     -0.18631      39.80500      40.67600     39.08600
  362     6     3     -0.19832      40.28800      40.40600     37.65500
  363     6     3     -0.18485      38.39200      40.12500     39.33900
  364     6     3     -0.18628      37.83000      40.47300     40.73000
  365     6     3     -0.17946      38.63800      39.92200     41.92200
  366     6     3     -0.19034      38.83400      38.39500     41.93100
  367     6     3     -0.18519      37.51900      37.60300     42.00900
  368     6     3     -0.18220      37.75800      36.08900     42.13400
  369     6     3     -0.17675      36.46700      35.24900     42.08500
  370     6     3     -0.18172      35.44300      35.54400     43.19600
  371     6     3     -0.18252      35.96600      35.26100     44.61600
  372     6     3     -0.18174      34.93800      35.54600     45.72600
  373     6     3     -0.17726      33.66100      34.68300     45.68400
  374     6     3     -0.19291      33.89800      33.16300     45.74900
  375     6     3     -0.24442      34.58900      32.70200     47.03900
  376     6     3     -0.17829      41.70100      40.95000     37.40100
  377     6     3     -0.17155      42.18000      40.68600     35.96400
  378     6     3     -0.17003      43.64400      41.09200     35.70400
  379     6     3     -0.06972      43.96400      42.59500     35.86400
  380     6     3     -0.23562      43.12700      43.48400     34.92800
  381     6     4     -0.07779      45.45400      42.86500     35.72000
  382     6     4     -0.13293      46.09500      42.68900     34.47400
  383     6     4     -0.13715      47.47400      42.93500     34.34000
  384     6     4     -0.14657      48.22500      43.36000     35.45300
  385     6     4     -0.13715      47.59300      43.53600     36.69900
  386     6     4     -0.13293      46.21300      43.28900     36.83200
  387     6     1      0.12976      45.52700      42.36200     33.61500
  388     6     1      0.13759      47.95600      42.79800     33.38300
  389     6     1      0.13631      49.28400      43.54900     35.35100
  390     6     1      0.13759      48.16800      43.86000     37.55500
  391     6     1      0.12976      45.74200      43.42700     37.79400
  392     6     2      0.11094      43.70300      42.88000     36.88400
  393     6     2      0.08676      43.26400      43.21200     33.88300
  394     6     2      0.08676      43.41300      44.53100     35.03600
  395     6     2      0.08676      42.06300      43.41900     35.15500
  396     6     2      0.09491      43.91900      40.77400     34.69800