LAMMPS data file of the system for full atom style

    4960 atoms
    4898 bonds
    9672 angles
   13950 dihedrals

    2 atom types
    2 bond types
    3 angle types
    2 dihedral types

    0.000000    50.000000 xlo xhi
    0.000000    50.000000 ylo yhi
    0.000000    50.000000 zlo zhi

 Masses 

    1       1.0080
    2      12.0110

 Pair Coeffs 

    1       0.0300       2.5000
    2       0.0660       3.5000

 Bond Coeffs 

    1     268.0000        1.5290
    2     340.0000        1.0900

 Angle Coeffs 

    1      33.0000      107.8000
    2      37.5000      110.7000
    3      58.3500      112.7000

 Dihedral Coeffs 

    1       0.0000        0.0000       0.3000        0.0000
    2       0.8500       -0.2000       0.2000        0.0000

 Atoms 

    1     1     2     -0.18288      21.93300      17.01500     49.00100
    2     1     2     -0.18000      22.80400      15.79000     48.66500
    3     1     2     -0.10740      20.92300      17.44900     47.91200
    4     1     2     -0.17453      20.18700      18.73400     48.36100
    5     1     2     -0.17344      19.23300      19.36000     47.32300
    6     1     2     -0.17750      19.87600      19.72700     45.96900
    7     1     2     -0.18063      21.09900      20.66000     46.05800
    8     1     2     -0.18504      20.78600      22.03300     46.67800
    9     1     2     -0.18074      21.96600      23.01700     46.62200
   10     1     2     -0.18025      23.13900      22.62300     47.53900
   11     1     2     -0.17868      24.32500      23.60000     47.48500
   12     1     2     -0.18943      24.03400      24.96800     48.13000
   13     1     2     -0.19061      25.22700      25.93600     48.08400
   14     1     2     -0.23949      26.40600      25.50700     48.96900
   15     1     2     -0.17737      19.96500      16.31500     47.47400
   16     1     2     -0.18184      19.04300      15.77100     48.58000
   17     1     2     -0.19631      18.12700      14.64800     48.07400
   18     1     2     -0.25170      17.20800      14.10400     49.17200
   19     1     2     -0.18682      23.71100      15.98600     47.43700
   20     1     2     -0.18580      24.62500      14.78400     47.13900
   21     1     2     -0.18171      25.65200      14.44400     48.24000
   22     1     2     -0.17418      26.58200      15.59900     48.65400
   23     1     2     -0.18552      27.47900      16.11400     47.51300
   24     1     2     -0.17887      28.39300      17.28400     47.92100
   25     1     2     -0.18840      29.43400      16.95700     49.00800
   26     1     2     -0.24839      30.42700      15.85900     48.60200
   27     1     1      0.08457      30.93300      16.10600     47.66800
   28     1     1      0.08457      31.19200      15.72700     49.36700
   29     1     1      0.08457      29.93100      14.89700     48.47100
   30     1     1      0.09007      28.93800      16.68100     49.93900
   31     1     1      0.09007      29.99400      17.86500     49.23500
   32     1     1      0.08925      27.77500      18.11700     48.26100
   33     1     1      0.08925      28.91200      17.65100     47.03400
   34     1     1      0.09403      28.07300      15.29500     47.10600
   35     1     1      0.09403      26.85000      16.45700     46.69100
   36     1     1      0.09217      27.21100      15.24300     49.47100
   37     1     1      0.09217      25.99900      16.42000     49.07100
   38     1     1      0.08935      25.12700      14.08000     49.12300
   39     1     1      0.08935      26.25900      13.60200     47.90500
   40     1     1      0.08971      25.15000      14.96300     46.20100
   41     1     1      0.08971      24.00500      13.90400     46.95300
   42     1     1      0.09105      23.09100      16.15700     46.55600
   43     1     1      0.09105      24.30800      16.89100     47.55200
   44     1     1      0.09478      23.42400      15.58100     49.53800
   45     1     1      0.09478      22.18100      14.90400     48.53600
   46     1     1      0.08533      21.40200      16.82000     49.93300
   47     1     1      0.08533      22.59600      17.85200     49.22200
   48     1     1      0.10791      21.51000      17.72200     47.03600
   49     1     1      0.09159      20.92500      19.48500     48.64700
   50     1     1      0.09159      19.62800      18.53500     49.27500
   51     1     1      0.08876      18.78400      20.25300     47.75800
   52     1     1      0.08876      18.39300      18.68600     47.14700
   53     1     1      0.08743      20.16500      18.81400     45.44800
   54     1     1      0.08743      19.11900      20.19100     45.33400
   55     1     1      0.08941      21.49200      20.80600     45.05100
   56     1     1      0.08941      21.89600      20.16300     46.61200
   57     1     1      0.08975      19.94200      22.47400     46.14700
   58     1     1      0.08975      20.46100      21.91600     47.71300
   59     1     1      0.09150      22.31200      23.12200     45.59300
   60     1     1      0.09150      21.59500      24.00100     46.91400
   61     1     1      0.08889      23.50600      21.63900     47.24900
   62     1     1      0.08889      22.79300      22.52000     48.56800
   63     1     1      0.09310      25.16600      23.13500     47.99800
   64     1     1      0.09310      24.64500      23.73500     46.45000
   65     1     1      0.08968      23.70900      24.83100     49.16300
   66     1     1      0.08968      23.19700      25.44000     47.61500
   67     1     1      0.09183      24.88900      26.92100     48.41200
   68     1     1      0.09183      25.56400      26.06500     47.05400
   69     1     1      0.08463      26.09500      25.36300     50.00400
   70     1     1      0.08463      26.85700      24.57700     48.62200
   71     1     1      0.08463      27.19000      26.26500     48.96400
   72     1     1      0.08984      19.35400      16.66200     46.63900
   73     1     1      0.08984      20.54700      15.49400     47.05600
   74     1     1      0.09714      19.64400      15.39600     49.40900
   75     1     1      0.09714      18.43200      16.57900     48.98300
   76     1     1      0.09211      18.73200      13.83200     47.67300
   77     1     1      0.09211      17.52000      15.01500     47.24400
   78     1     1      0.08284      16.56800      13.30800     48.78700
   79     1     1      0.08284      17.78100      13.69100     50.00200
   80     1     1      0.08285      16.55800      14.88500     49.56900
   81     2     2     -0.18288      27.15000      21.73600     31.22400
   82     2     2     -0.18000      26.09900      22.83700     31.46200
   83     2     2     -0.10740      28.16100      21.99700     30.08300
   84     2     2     -0.17453      29.09100      20.77200     29.91400
   85     2     2     -0.17344      30.07600      20.83400     28.72800
   86     2     2     -0.17750      29.43100      21.03200     27.34100
   87     2     2     -0.18063      28.35800      19.99300     26.96400
   88     2     2     -0.18504      28.89000      18.55100     26.89800
   89     2     2     -0.18074      27.86100      17.53800     26.37000
   90     2     2     -0.18025      26.68600      17.29600     27.33700
   91     2     2     -0.17868      25.64900      16.28700     26.81400
   92     2     2     -0.18943      26.16100      14.83600     26.77100
   93     2     2     -0.19061      25.11600      13.83000     26.26000
   94     2     2     -0.23949      23.92900      13.63200     27.21300
   95     2     2     -0.17737      28.92800      23.33400     30.23300
   96     2     2     -0.18184      29.81200      23.44400     31.48900
   97     2     2     -0.19631      30.53600      24.79500     31.57200
   98     2     2     -0.25170      31.41700      24.90900     32.82100
   99     2     2     -0.18682      25.17500      23.09000     30.25800
  100     2     2     -0.18580      24.08700      24.14700     30.51900
  101     2     2     -0.18171      23.07300      23.79400     31.62700
  102     2     2     -0.17418      22.33600      22.45500     31.44600
  103     2     2     -0.18552      21.47000      22.38900     30.17400
  104     2     2     -0.17887      20.75100      21.04200     29.98100
  105     2     2     -0.18840      19.72400      20.68300     31.07200
  106     2     2     -0.24839      18.56800      21.68600     31.18700
  107     2     1      0.08457      18.06100      21.81900     30.23100
  108     2     1      0.08457      17.82700      21.34200     31.90900
  109     2     1      0.08457      18.91700      22.66300     31.52100
  110     2     1      0.09007      20.21800      20.57400     32.03800
  111     2     1      0.09007      19.31000      19.69900     30.84600
  112     2     1      0.08925      21.49600      20.24600     29.91900
  113     2     1      0.08925      20.25000      21.04700     29.01200
  114     2     1      0.09403      20.74800      23.20600     30.17100
  115     2     1      0.09403      22.10400      22.55400     29.30300
  116     2     1      0.09217      21.70100      22.30400     32.32000
  117     2     1      0.09217      23.04800      21.63000     31.45700
  118     2     1      0.08935      23.58100      23.79000     32.59200
  119     2     1      0.08935      22.33800      24.59700     31.69900
  120     2     1      0.08971      23.55100      24.33900     29.58900
  121     2     1      0.08971      24.56700      25.09500     30.77000
  122     2     1      0.09105      25.77300      23.43100     29.41200
  123     2     1      0.09105      24.71800      22.15400     29.93300
  124     2     1      0.09478      25.49600      22.53300     32.31900
  125     2     1      0.09478      26.58400      23.76500     31.76700
  126     2     1      0.08533      27.68900      21.56100     32.15500
  127     2     1      0.08533      26.62300      20.80300     31.02300
  128     2     1      0.10791      27.58000      22.07000     29.16400
  129     2     1      0.09159      28.48100      19.87500     29.80800
  130     2     1      0.09159      29.65700      20.61400     30.83200
  131     2     1      0.08876      30.66700      19.91800     28.72000
  132     2     1      0.08876      30.80300      21.62900     28.90100
  133     2     1      0.08743      28.99300      22.02800     27.28700
  134     2     1      0.08743      30.21700      21.02500     26.58400
  135     2     1      0.08941      27.94500      20.26400     25.99300
  136     2     1      0.08941      27.52500      20.06000     27.66500
  137     2     1      0.08975      29.76400      18.52800     26.24500
  138     2     1      0.08975      29.24200      18.23000     27.88000
  139     2     1      0.09150      27.48700      17.86300     25.39900
  140     2     1      0.09150      28.38000      16.59600     26.19000
  141     2     1      0.08889      26.17100      18.23900     27.51800
  142     2     1      0.08889      27.06100      16.96900     28.30800
  143     2     1      0.09310      24.77500      16.33900     27.46200
  144     2     1      0.09310      25.30500      16.59200     25.82400
  145     2     1      0.08968      26.50900      14.53400     27.76100
  146     2     1      0.08968      27.03200      14.77700     26.11800
  147     2     1      0.09183      25.60400      12.86600     26.11000
  148     2     1      0.09183      24.75500      14.13600     25.27600
  149     2     1      0.08463      24.26400      13.33400     28.20800
  150     2     1      0.08463      23.33600      14.54100     27.31700
  151     2     1      0.08463      23.26200      12.85400     26.84400
  152     2     1      0.08984      29.54300      23.49700     29.34700
  153     2     1      0.08984      28.21600      24.15900     30.22200
  154     2     1      0.09714      29.20200      23.30800     32.38200
  155     2     1      0.09714      30.54900      22.64100     31.49400
  156     2     1      0.09211      29.80400      25.60600     31.57300
  157     2     1      0.09211      31.15100      24.93800     30.68200
  158     2     1      0.08284      31.92000      25.87700     32.85700
  159     2     1      0.08284      30.82900      24.81000     33.73300
  160     2     1      0.08285      32.18800      24.13800     32.83400
  161     3     2     -0.18288      34.45000      35.51500     28.16200
  162     3     2     -0.18000      34.65700      34.63300     29.40800
  163     3     2     -0.10740      34.84600      34.88000     26.80800
  164     3     2     -0.17453      34.66000      35.91200     25.67000
  165     3     2     -0.17344      35.13300      35.46400     24.27100
  166     3     2     -0.17750      36.61200      35.03600     24.17800
  167     3     2     -0.18063      37.62800      36.08500     24.66600
  168     3     2     -0.18504      37.59500      37.39900     23.86600
  169     3     2     -0.18074      38.71100      38.38300     24.25000
  170     3     2     -0.18025      38.54600      38.98000     25.66000
  171     3     2     -0.17868      39.66300      39.96200     26.05300
  172     3     2     -0.18943      39.62100      41.29300     25.28000
  173     3     2     -0.19061      40.73200      42.27500     25.68600
  174     3     2     -0.23949      40.57900      42.82700     27.11000
  175     3     2     -0.17737      34.14100      33.53000     26.53200
  176     3     2     -0.18184      32.60700      33.60000     26.42700
  177     3     2     -0.19631      31.97900      32.22600     26.15800
  178     3     2     -0.25170      30.45200      32.29100     26.05400
  179     3     2     -0.18682      36.12200      34.22800     29.65100
  180     3     2     -0.18580      36.33400      33.39800     30.93000
  181     3     2     -0.18171      35.98000      34.11400     32.25100
  182     3     2     -0.17418      36.69500      35.45800     32.48600
  183     3     2     -0.18552      38.22800      35.33800     32.57700
  184     3     2     -0.17887      38.94500      36.68400     32.78900
  185     3     2     -0.18840      38.61300      37.40300     34.11000
  186     3     2     -0.24839      38.99100      36.60100     35.36300
  187     3     1      0.08457      40.04400      36.31700     35.35000
  188     3     1      0.08457      38.81800      37.18700     36.26500
  189     3     1      0.08457      38.39800      35.69000     35.45000
  190     3     1      0.09007      37.55600      37.66700     34.14500
  191     3     1      0.09007      39.15000      38.35300     34.13100
  192     3     1      0.08925      38.71100      37.34800     31.95400
  193     3     1      0.08925      40.02200      36.52000     32.73600
  194     3     1      0.09403      38.50200      34.63500     33.36400
  195     3     1      0.09403      38.60700      34.90300     31.65100
  196     3     1      0.09217      36.31300      35.87900     33.41700
  197     3     1      0.09217      36.42100      36.17000     31.70900
  198     3     1      0.08935      34.90300      34.27500     32.29600
  199     3     1      0.08935      36.20000      33.44400     33.08300
  200     3     1      0.08971      37.37200      33.06700     30.96800
  201     3     1      0.08971      35.74700      32.48100     30.85900
  202     3     1      0.09105      36.47500      33.63400     28.80800
  203     3     1      0.09105      36.75700      35.11400     29.67000
  204     3     1      0.09478      34.29300      35.19500     30.26900
  205     3     1      0.09478      34.02500      33.74600     29.35500
  206     3     1      0.08533      33.40700      35.82900     28.12600
  207     3     1      0.08533      35.01900      36.43500     28.30000
  208     3     1      0.10791      35.91400      34.67300     26.86200
  209     3     1      0.09159      35.18800      36.83000     25.93300
  210     3     1      0.09159      33.61200      36.20500     25.60800
  211     3     1      0.08876      34.95000      36.27500     23.56700
  212     3     1      0.08876      34.50200      34.64600     23.91900
  213     3     1      0.08743      36.75600      34.11400     24.74100
  214     3     1      0.08743      36.83800      34.77500     23.14200
  215     3     1      0.08941      38.62700      35.65300     24.59700
  216     3     1      0.08941      37.46800      36.28100     25.72700
  217     3     1      0.08975      37.68800      37.16600     22.80400
  218     3     1      0.08975      36.62600      37.88800     23.98100
  219     3     1      0.09150      39.68200      37.89500     24.16000
  220     3     1      0.09150      38.71400      39.19000     23.51500
  221     3     1      0.08889      38.54000      38.17300     26.39200
  222     3     1      0.08889      37.57600      39.47000     25.74900
  223     3     1      0.09310      39.57000      40.16500     27.12000
  224     3     1      0.09310      40.63600      39.48500     25.92500
  225     3     1      0.08968      38.64500      41.76600     25.40500
  226     3     1      0.08968      39.72100      41.09500     24.21200
  227     3     1      0.09183      40.72800      43.11400     24.98800
  228     3     1      0.09183      41.70800      41.80100     25.57500
  229     3     1      0.08463      39.60500      43.30000     27.25100
  230     3     1      0.08463      40.68300      42.04500     27.86300
  231     3     1      0.08463      41.34100      43.57700     27.31900
  232     3     1      0.08984      34.54200      33.09500     25.61500
  233     3     1      0.08984      34.41500      32.81600     27.30800
  234     3     1      0.09714      32.19300      34.00800     27.35000
  235     3     1      0.09714      32.32200      34.28800     25.63100
  236     3     1      0.09211      32.25600      31.53100     26.95400
  237     3     1      0.09211      32.38700      31.81000     25.23500
  238     3     1      0.08284      30.03100      31.30300     25.86200
  239     3     1      0.08284      30.00600      32.66500     26.97500
  240     3     1      0.08285      30.13800      32.94500     25.23900
  241     4     2     -0.18288      27.34900      20.59600     13.07600
  242     4     2     -0.18000      27.64400      22.00100     13.63400
  243     4     2     -0.10740      27.83600      20.32100     11.63400
  244     4     2     -0.17453      27.39300      18.90700     11.19000
  245     4     2     -0.17344      27.70100      18.53400      9.72500
  246     4     2     -0.17750      27.10800      19.48300      8.66200
  247     4     2     -0.18063      25.58500      19.69200      8.75000
  248     4     2     -0.18504      24.77100      18.40100      8.55600
  249     4     2     -0.18074      23.25200      18.63500      8.48600
  250     4     2     -0.18025      22.63800      19.08500      9.82500
  251     4     2     -0.17868      21.12000      19.32500      9.76100
  252     4     2     -0.18943      20.29300      18.03700      9.59800
  253     4     2     -0.19061      18.77600      18.28300      9.54800
  254     4     2     -0.23949      18.18500      18.77300     10.87700
  255     4     2     -0.17737      29.34900      20.58100     11.43500
  256     4     2     -0.18184      30.28200      19.69000     12.27400
  257     4     2     -0.19631      31.76400      20.00800     12.02800
  258     4     2     -0.25170      32.69800      19.12300     12.86200
  259     4     2     -0.18682      26.97800      23.14100     12.84100
  260     4     2     -0.18580      27.22500      24.53900     13.43500
  261     4     2     -0.18171      26.65700      24.76600     14.85200
  262     4     2     -0.17418      25.15000      24.49000     15.01200
  263     4     2     -0.18552      24.25700      25.40000     14.14900
  264     4     2     -0.17887      22.75200      25.10900     14.29000
  265     4     2     -0.18840      22.16700      25.34600     15.69600
  266     4     2     -0.24839      22.29300      26.79600     16.18200
  267     4     1      0.08457      21.84500      27.49400     15.47300
  268     4     1      0.08457      21.78900      26.93000     17.13900
  269     4     1      0.08457      23.33600      27.08300     16.32200
  270     4     1      0.09007      22.62800      24.67200     16.41800
  271     4     1      0.09007      21.11000      25.07500     15.68000
  272     4     1      0.08925      22.56000      24.07600     13.99500
  273     4     1      0.08925      22.20600      25.72300     13.57200
  274     4     1      0.09403      24.46300      26.44700     14.37400
  275     4     1      0.09403      24.52200      25.26900     13.09900
  276     4     1      0.09217      24.89600      24.63100     16.06300
  277     4     1      0.09217      24.93600      23.44300     14.79700
  278     4     1      0.08935      27.20600      24.14900     15.56300
  279     4     1      0.08935      26.86300      25.79400     15.15200
  280     4     1      0.08971      26.81300      25.28800     12.75900
  281     4     1      0.08971      28.29900      24.73300     13.45200
  282     4     1      0.09105      27.36500      23.14100     11.82100
  283     4     1      0.09105      25.90800      22.95700     12.74700
  284     4     1      0.09478      27.28600      22.02500     14.66400
  285     4     1      0.09478      28.72000      22.16500     13.69900
  286     4     1      0.08533      27.77600      19.85500     13.75200
  287     4     1      0.08533      26.27100      20.43300     13.12200
  288     4     1      0.10791      27.30800      21.02400     10.98900
  289     4     1      0.09159      26.32000      18.80200     11.35400
  290     4     1      0.09159      27.84600      18.16000     11.84300
  291     4     1      0.08876      27.34000      17.52200      9.54100
  292     4     1      0.08876      28.78100      18.47100      9.58400
  293     4     1      0.08743      27.60300      20.45100      8.72900
  294     4     1      0.08743      27.36000      19.10200      7.67100
  295     4     1      0.08941      25.29400      20.41400      7.98500
  296     4     1      0.08941      25.33600      20.16100      9.70200
  297     4     1      0.08975      25.09000      17.92000      7.63000
  298     4     1      0.08975      24.99000      17.69100      9.35400
  299     4     1      0.09150      23.02600      19.36200      7.70500
  300     4     1      0.09150      22.78400      17.70200      8.17000
  301     4     1      0.08889      23.10900      20.01500     10.14100
  302     4     1      0.08889      22.86300      18.35700     10.60500
  303     4     1      0.09310      20.82200      19.82700     10.68200
  304     4     1      0.09310      20.89000      20.02300      8.95400
  305     4     1      0.08968      20.52800      17.33900     10.40400
  306     4     1      0.08968      20.58300      17.53400      8.67500
  307     4     1      0.09183      18.28100      17.35000      9.27300
  308     4     1      0.09183      18.53900      18.99100      8.75300
  309     4     1      0.08463      18.41500      18.08600     11.69300
  310     4     1      0.08463      18.56400      19.75800     11.15100
  311     4     1      0.08463      17.10000      18.85300     10.81200
  312     4     1      0.08984      29.59800      20.46600     10.37900
  313     4     1      0.08984      29.56500      21.62800     11.64900
  314     4     1      0.09714      30.06000      19.81800     13.33400
  315     4     1      0.09714      30.09700      18.64100     12.04400
  316     4     1      0.09211      31.96000      21.05700     12.26100
  317     4     1      0.09211      31.99700      19.88100     10.97000
  318     4     1      0.08284      33.74300      19.36800     12.66900
  319     4     1      0.08284      32.52100      19.25300     13.93000
  320     4     1      0.08285      32.55900      18.06700     12.62500
  321     5     2     -0.18288       9.95300       5.25100     37.91500
  322     5     2     -0.18000       9.72600       6.38300     36.89500
  323     5     2     -0.10740       8.76700       4.28300     38.13100
  324     5     2     -0.17453       9.11700       3.26100     39.23900
  325     5     2     -0.17344       7.98200       2.30300     39.65500
  326     5     2     -0.17750       6.68700       2.98400     40.14400
  327     5     2     -0.18063       6.86900       3.97600     41.30700
  328     5     2     -0.18504       7.42900       3.33200     42.58800
  329     5     2     -0.18074       7.46300       4.28600     43.79300
  330     5     2     -0.18025       8.49300       5.42100     43.64900
  331     5     2     -0.17868       8.52900       6.38300     44.84900
  332     5     2     -0.18943       9.11500       5.75800     46.12900
  333     5     2     -0.19061       9.16100       6.72700     47.32100
  334     5     2     -0.23949      10.16000       7.87900     47.14500
  335     5     2     -0.17737       8.26500       3.62300     36.82400
  336     5     2     -0.18184       9.29200       2.73000     36.10500
  337     5     2     -0.19631       8.72500       2.11600     34.81700
  338     5     2     -0.25170       9.74400       1.22600     34.09700
  339     5     2     -0.18682       8.58400       7.34400     37.27100
  340     5     2     -0.18580       8.39800       8.50800     36.28200
  341     5     2     -0.18171       9.59700       9.47300     36.16100
  342     5     2     -0.17418      10.07200      10.10300     37.48400
  343     5     2     -0.18552       9.00900      10.98100     38.17000
  344     5     2     -0.17887       9.47500      11.59400     39.50300
  345     5     2     -0.18840      10.66100      12.57100     39.39800
  346     5     2     -0.24839      10.37300      13.80100     38.52700
  347     5     1      0.08457       9.48500      14.33300     38.87100
  348     5     1      0.08457      11.20900      14.50100     38.55500
  349     5     1      0.08457      10.21700      13.52600     37.48300
  350     5     1      0.09007      11.54800      12.05500     39.02800
  351     5     1      0.09007      10.92100      12.90900     40.40200
  352     5     1      0.08925       9.73800      10.78800     40.19200
  353     5     1      0.08925       8.63300      12.10900     39.96700
  354     5     1      0.09403       8.67700      11.76600     37.49000
  355     5     1      0.09403       8.12500      10.37700     38.37500
  356     5     1      0.09217      10.95100      10.71000     37.26500
  357     5     1      0.09217      10.41500       9.32700     38.16800
  358     5     1      0.08935      10.43500       8.95100     35.69800
  359     5     1      0.08935       9.33800      10.26800     35.46100
  360     5     1      0.08971       7.50900       9.07200     36.56300
  361     5     1      0.08971       8.17400       8.10100     35.29300
  362     5     1      0.09105       7.64600       6.78900     37.30900
  363     5     1      0.09105       8.73600       7.73000     38.28000
  364     5     1      0.09478      10.65700       6.94600     36.81900
  365     5     1      0.09478       9.55800       5.96900     35.90000
  366     5     1      0.08533      10.83600       4.68500     37.61700
  367     5     1      0.08533      10.21800       5.70600     38.87100
  368     5     1      0.10791       7.94300       4.88300     38.51800
  369     5     1      0.09159       9.45500       3.79900     40.12500
  370     5     1      0.09159       9.97900       2.66900     38.93100
  371     5     1      0.08876       8.35500       1.64100     40.43600
  372     5     1      0.08876       7.74300       1.63900     38.82200
  373     5     1      0.08743       6.21500       3.50100     39.30800
  374     5     1      0.08743       5.97400       2.21300     40.44100
  375     5     1      0.08941       5.90100       4.42500     41.52900
  376     5     1      0.08941       7.50600       4.80100     40.98600
  377     5     1      0.08975       6.81200       2.47000     42.84600
  378     5     1      0.08975       8.43100       2.94000     42.40900
  379     5     1      0.09150       6.46800       4.70000     43.96500
  380     5     1      0.09150       7.69800       3.69600     44.68000
  381     5     1      0.08889       8.25900       6.00700     42.76100
  382     5     1      0.08889       9.48700       5.00700     43.48000
  383     5     1      0.09310       9.12800       7.24800     44.56700
  384     5     1      0.09310       7.52600       6.76600     45.04600
  385     5     1      0.08968      10.11600       5.37100     45.92900
  386     5     1      0.08968       8.51500       4.89500     46.41900
  387     5     1      0.09183       9.43400       6.16600     48.21600
  388     5     1      0.09183       8.16400       7.12700     47.51500
  389     5     1      0.08463      11.16500       7.50600     46.94100
  390     5     1      0.08463       9.87600       8.54100     46.32700
  391     5     1      0.08463      10.21200       8.48800     48.04700
  392     5     1      0.08984       7.36900       3.03700     37.03800
  393     5     1      0.08984       7.92000       4.39800     36.13900
  394     5     1      0.09714      10.18100       3.31300     35.86200
  395     5     1      0.09714       9.61800       1.93100     36.77100
  396     5     1      0.09211       8.40000       2.90900     34.14100
  397     5     1      0.09211       7.83500       1.52800     35.05000
  398     5     1      0.08284       9.31900       0.80200     33.18600
  399     5     1      0.08284      10.63300       1.79000     33.81200
  400     5     1      0.08285      10.06300       0.39500     34.72900
  401     6     2     -0.18288       6.08400      34.54400     12.68100
  402     6     2     -0.18000       5.97600      33.04200     12.35600
  403     6     2     -0.10740       4.99600      35.45300     12.06100
  404     6     2     -0.17453       5.28700      36.93200     12.40800
  405     6     2     -0.17344       4.35400      37.97300     11.75400