LAMMPS data file of the system for full atom style

    4958 atoms
    5106 bonds
    9768 angles
   14578 dihedrals
     740 impropers

    6 atom types
    7 bond types
   13 angle types
    9 dihedral types
    1 improper types

    0.000000    50.000000 xlo xhi
    0.000000    50.000000 ylo yhi
    0.000000    50.000000 zlo zhi

 Masses 

    1       1.0080
    2       1.0080
    3      12.0110
    4      12.0110
    5      12.0110
    6      12.0110

 Pair Coeffs 

    1       0.0300       2.4200
    2       0.0300       2.5000
    3       0.0660       3.5000
    4       0.0700       3.5500
    5       0.0760       3.5500
    6       0.0800       3.5000

 Bond Coeffs 

    1     268.0000        1.5290
    2     317.0000        1.5100
    3     340.0000        1.0900
    4     367.0000        1.0800
    5     427.0000        1.4330
    6     469.0000        1.4000
    7     469.0000        1.4040

 Angle Coeffs 

    1      33.0000      107.8000
    2      35.0000      109.5000
    3      35.0000      120.0000
    4      37.5000      110.7000
    5      46.9000      116.8000
    6      58.3500      112.7000
    7      63.0000      114.0000
    8      63.0000      120.0000
    9      65.8200      118.9600
   10      70.0000      120.0000
   11      70.0000      124.0000
   12      70.0000      128.6000
   13      85.0000      134.9000

 Dihedral Coeffs 

    1      -1.6970       -0.4560       0.5850        0.0000
    2      -0.2500        0.0000       0.0000        0.0000
    3       0.0000        0.0000       0.0000        0.0000
    4       0.0000        0.0000       0.3000        0.0000
    5       0.0000        0.0000       0.4620        0.0000
    6       0.0000        3.4310       0.0000        0.0000
    7       0.0000        7.0000       0.0000        0.0000
    8       0.0000        7.2500       0.0000        0.0000
    9       0.8500       -0.2000       0.2000        0.0000

 Improper Coeffs 

    1       2.5000     -1     2

 Atoms 

    1     1     3     -0.19035      11.23600      18.73100     10.29000
    2     1     3     -0.17366      11.20000      20.21300      9.87500
    3     1     3     -0.18298      10.79200      17.76500      9.17700
    4     1     3     -0.18054      10.89000      16.27900      9.57400
    5     1     3     -0.17910      10.00500      15.85500     10.76500
    6     1     3     -0.17385       8.50000      16.13600     10.60200
    7     1     3     -0.17523       7.85100      15.38500      9.42600
    8     1     3     -0.18199       6.34600      15.65900      9.27300
    9     1     3     -0.18268       5.48900      15.06700     10.40200
   10     1     3     -0.17757       3.98400      15.25200     10.15000
   11     1     3     -0.18065       3.09500      14.77400     11.31400
   12     1     3     -0.18402       3.20300      13.27200     11.64900
   13     1     3     -0.18420       2.86700      12.31800     10.48900
   14     1     3     -0.24049       1.42600      12.45400      9.97700
   15     1     3     -0.14222      12.24700      20.61400      8.81800
   16     1     4     -0.07069      13.68800      20.47500      9.27700
   17     1     4     -0.12299      14.37200      19.29200      8.85400
   18     1     4     -0.12080      15.71800      19.00800      9.19900
   19     1     4     -0.08528      16.38200      19.95200      9.99100
   20     1     5     -0.06467      15.71800      21.11500     10.41500
   21     1     6     -0.02137      14.36400      21.43400     10.08900
   22     1     4     -0.13687      13.91600      22.66700     10.63900
   23     1     4     -0.13045      14.75900      23.49200     11.43800
   24     1     4     -0.13650      16.09900      23.13400     11.73400
   25     1     4     -0.07589      16.56100      21.92300     11.20300
   26     1     3     -0.13905      17.92100      21.26700     11.33700
   27     1     3     -0.13951      17.80100      19.94200     10.52400
   28     1     1      0.13427      13.84500      18.57100      8.24900
   29     1     1      0.14011      16.20700      18.10600      8.86500
   30     1     2      0.09950      12.09400      21.65900      8.54700
   31     1     2      0.09950      12.09300      20.06200      7.89200
   32     1     2      0.09573      11.35500      20.82700     10.76400
   33     1     2      0.09573      10.20200      20.46500      9.51300
   34     1     2      0.09609      12.23500      18.47000     10.64000
   35     1     2      0.09609      10.58100      18.60800     11.15300
   36     1     2      0.09206      11.41700      17.91300      8.29700
   37     1     2      0.09206       9.77600      18.00100      8.85800
   38     1     2      0.08717      11.93000      16.04600      9.81100
   39     1     2      0.08717      10.65100      15.66400      8.70700
   40     1     2      0.08712      10.14900      14.78900     10.94600
   41     1     2      0.08712      10.36100      16.34700     11.67100
   42     1     2      0.09229       8.00700      15.84900     11.53100
   43     1     2      0.09229       8.32800      17.20900     10.50200
   44     1     2      0.09173       8.02400      14.31300      9.52700
   45     1     2      0.09173       8.34200      15.68200      8.49800
   46     1     2      0.08800       6.01600      15.23400      8.32300
   47     1     2      0.08800       6.17200      16.73400      9.19500
   48     1     2      0.09154       5.75100      15.53200     11.35300
   49     1     2      0.09154       5.71600      14.00500     10.50400
   50     1     2      0.08797       3.78200      16.31100      9.98000
   51     1     2      0.08797       3.69500      14.74800      9.22700
   52     1     2      0.09025       3.34000      15.35100     12.20700
   53     1     2      0.09025       2.05600      15.02100     11.09100
   54     1     2      0.08737       2.54500      13.05300     12.49100
   55     1     2      0.08737       4.20900      13.05300     12.01000
   56     1     2      0.08855       3.02200      11.29200     10.82600
   57     1     2      0.08855       3.56700      12.46300      9.66500
   58     1     2      0.08518       1.24800      13.43300      9.53300
   59     1     2      0.08518       0.70400      12.31200     10.78200
   60     1     2      0.08518       1.21500      11.70700      9.21100
   61     1     1      0.14324      12.90300      22.98500     10.44700
   62     1     1      0.14865      14.36500      24.41900     11.83100
   63     1     1      0.14277      16.73200      23.76400     12.34100
   64     1     2      0.11471      18.14100      21.07600     12.38800
   65     1     2      0.11471      18.69300      21.92200     10.93000
   66     1     2      0.11442      17.95700      19.06600     11.15300
   67     1     2      0.11442      18.50900      19.91100      9.69600
   68     2     3     -0.19035      28.20500      16.40400     12.93100
   69     2     3     -0.17366      28.94900      15.36600     12.07200
   70     2     3     -0.18298      28.88400      16.69200     14.28300
   71     2     3     -0.18054      28.17100      17.77800     15.11200
   72     2     3     -0.17910      26.72200      17.45000     15.52300
   73     2     3     -0.17385      26.54100      16.14400     16.31900
   74     2     3     -0.17523      27.27700      16.13300     17.67100
   75     2     3     -0.18199      27.08700      14.83300     18.46800
   76     2     3     -0.18268      25.66000      14.63500     19.00200
   77     2     3     -0.17757      25.54000      13.39100     19.89700
   78     2     3     -0.18065      24.10000      13.09500     20.35900
   79     2     3     -0.18402      23.44500      14.19700     21.21600
   80     2     3     -0.18420      24.19900      14.55500     22.50900
   81     2     3     -0.24049      24.32500      13.38400     23.49400
   82     2     3     -0.14222      30.31200      15.83500     11.52800
   83     2     4     -0.07069      30.23400      17.00700     10.56500
   84     2     4     -0.12299      30.51700      18.29500     11.11800
   85     2     4     -0.12080      30.48500      19.49100     10.35600
   86     2     4     -0.08528      30.15800      19.37000      9.00100
   87     2     5     -0.06467      29.87400      18.11000      8.44900
   88     2     6     -0.02137      29.89600      16.88600      9.18400
   89     2     4     -0.13687      29.56900      15.74100      8.40400
   90     2     4     -0.13045      29.25500      15.83300      7.01700
   91     2     4     -0.13650      29.24700      17.07300      6.33000
   92     2     4     -0.07589      29.56500      18.21400      7.07900
   93     2     3     -0.13905      29.64000      19.66300      6.64300
   94     2     3     -0.13951      30.03700      20.44200      7.93500
   95     2     1      0.13427      30.76100      18.37300     12.16600
   96     2     1      0.14011      30.70200      20.44900     10.80200
   97     2     2      0.09950      30.78300      15.00900     10.99300
   98     2     2      0.09950      30.99600      16.06400     12.34300
   99     2     2      0.09573      28.31500      15.09500     11.22600
  100     2     2      0.09573      29.08300      14.44800     12.64700
  101     2     2      0.09609      28.08000      17.32900     12.36600
  102     2     2      0.09609      27.19600      16.03200     13.11000
  103     2     2      0.09206      29.90600      17.02500     14.11100
  104     2     2      0.09206      28.96900      15.77300     14.86300
  105     2     2      0.08717      28.17100      18.71100     14.54400
  106     2     2      0.08717      28.76300      17.98900     16.00300
  107     2     2      0.08712      26.32700      18.28000     16.11000
  108     2     2      0.08712      26.09400      17.41000     14.63200
  109     2     2      0.09229      25.47300      16.00200     16.48800
  110     2     2      0.09229      26.85500      15.29100     15.71600
  111     2     2      0.09173      26.96400      16.98700     18.27400
  112     2     2      0.09173      28.34600      16.26600     17.49600
  113     2     2      0.08800      27.77900      14.84500     19.31300
  114     2     2      0.08800      27.38000      13.97800     17.85700
  115     2     2      0.09154      24.95900      14.54600     18.17100
  116     2     2      0.09154      25.36300      15.52100     19.56400
  117     2     2      0.08797      25.90600      12.52400     19.34700
  118     2     2      0.08797      26.19700      13.48800     20.76200
  119     2     2      0.09025      23.47700      12.91500     19.48200
  120     2     2      0.09025      24.09200      12.15500     20.91200
  121     2     2      0.08737      22.43000      13.88600     21.47100
  122     2     2      0.08737      23.32200      15.09900     20.61500
  123     2     2      0.08855      23.67200      15.37200     23.00500
  124     2     2      0.08855      25.18900      14.94800     22.27300
  125     2     2      0.08518      24.93400      12.57800     23.08300
  126     2     2      0.08518      23.34800      12.97100     23.74800
  127     2     2      0.08518      24.79800      13.70600     24.42200
  128     2     1      0.14324      29.55700      14.77300      8.88000
  129     2     1      0.14865      29.01400      14.93000      6.47400
  130     2     1      0.14277      29.00700      17.13500      5.27800
  131     2     2      0.11471      28.67300      19.98800      6.25900
  132     2     2      0.11471      30.38700      19.77900      5.85700
  133     2     2      0.11442      29.27500      21.16800      8.22000
  134     2     2      0.11442      30.99000      20.95900      7.81800
  135     3     3     -0.19035      38.53600      28.81600     16.75600
  136     3     3     -0.17366      37.95300      30.20100     17.09100
  137     3     3     -0.18298      39.22600      28.74900     15.38200
  138     3     3     -0.18054      39.86300      27.37900     15.07800
  139     3     3     -0.17910      38.88100      26.19100     15.02300
  140     3     3     -0.17385      37.72500      26.33600     14.01600
  141     3     3     -0.17523      38.18700      26.44900     12.55200
  142     3     3     -0.18199      37.03000      26.58300     11.54800
  143     3     3     -0.18268      36.18100      25.31000     11.40600
  144     3     3     -0.17757      35.11600      25.44100     10.30500
  145     3     3     -0.18065      34.17100      24.22800     10.20900
  146     3     3     -0.18402      34.85300      22.88800      9.86700
  147     3     3     -0.18420      35.63600      22.87200      8.54200
  148     3     3     -0.24049      34.76400      23.13900      7.30700
  149     3     3     -0.14222      39.00200      31.30400     17.32700
  150     3     4     -0.07069      39.90100      31.06900     18.52900
  151     3     4     -0.12299      41.19300      30.52300     18.25100
  152     3     4     -0.12080      42.15000      30.24000     19.26000
  153     3     4     -0.08528      41.78100      30.52200     20.57900
  154     3     5     -0.06467      40.51300      31.05500     20.86400
  155     3     6     -0.02137      39.52400      31.35000     19.87600
  156     3     4     -0.13687      38.31700      31.87900     20.41200
  157     3     4     -0.13045      38.13400      32.08700     21.81000
  158     3     4     -0.13650      39.14800      31.77900     22.75300
  159     3     4     -0.07589      40.34500      31.25600     22.24700
  160     3     3     -0.13905      41.59900      30.82900     22.98500
  161     3     3     -0.13951      42.56400      30.33400     21.86400
  162     3     1      0.13427      41.46100      30.30500     17.22900
  163     3     1      0.14011      43.11800      29.82700     19.01800
  164     3     2      0.09950      38.48900      32.25200     17.48900
  165     3     2      0.09950      39.60500      31.46300     16.43400
  166     3     2      0.09573      37.33800      30.11300     17.98800
  167     3     2      0.09573      37.27300      30.51000     16.29500
  168     3     2      0.09609      39.22700      28.50800     17.54200
  169     3     2      0.09609      37.72000      28.09300     16.78300
  170     3     2      0.09206      40.01400      29.49800     15.33500
  171     3     2      0.09206      38.52000      29.01600     14.59400
  172     3     2      0.08717      40.62400      27.17000     15.83300
  173     3     2      0.08717      40.40800      27.44300     14.13600
  174     3     2      0.08712      39.44000      25.28400     14.79200
  175     3     2      0.08712      38.46500      26.02200     16.01700
  176     3     2      0.09229      37.07800      25.46500     14.12500
  177     3     2      0.09229      37.10400      27.19400     14.28000
  178     3     2      0.09173      38.80800      25.59200     12.28900
  179     3     2      0.09173      38.82600      27.32700     12.44600
  180     3     2      0.08800      37.45100      26.83400     10.57200
  181     3     2      0.08800      36.39600      27.42700     11.82500
  182     3     2      0.09154      35.69000      25.08100     12.35200
  183     3     2      0.09154      36.83600      24.46700     11.18500
  184     3     2      0.08797      34.51300      26.32800     10.50000
  185     3     2      0.08797      35.59400      25.61900      9.34100
  186     3     2      0.09025      33.63700      24.11900     11.15400
  187     3     2      0.09025      33.39800      24.43900      9.46800
  188     3     2      0.08737      34.09300      22.10500      9.83900
  189     3     2      0.08737      35.52300      22.60400     10.68000
  190     3     2      0.08855      36.11000      21.89600      8.43000
  191     3     2      0.08855      36.45600      23.59200      8.57900
  192     3     2      0.08518      34.34700      24.14600      7.32000
  193     3     2      0.08518      33.93600      22.43200      7.24500
  194     3     2      0.08518      35.34900      23.04200      6.39200
  195     3     1      0.14324      37.51300      32.12800     19.73800
  196     3     1      0.14865      37.19600      32.49200     22.16100
  197     3     1      0.14277      39.00200      31.93900     23.81100
  198     3     2      0.11471      41.36200      30.03400     23.69200
  199     3     2      0.11471      42.01600      31.67500     23.53200
  200     3     2      0.11442      42.82600      29.28400     21.99100
  201     3     2      0.11442      43.48000      30.92400     21.83100
  202     4     3     -0.19035      13.82400      19.51700     44.16800
  203     4     3     -0.17366      14.69100      20.71900     44.58300
  204     4     3     -0.18298      14.11200      18.23700     44.97300
  205     4     3     -0.18054      13.19800      17.05400     44.59800
  206     4     3     -0.17910      13.31100      16.57000     43.13800
  207     4     3     -0.17385      14.72300      16.15400     42.68700
  208     4     3     -0.17523      15.30100      14.96300     43.47400
  209     4     3     -0.18199      16.70600      14.54300     43.01600
  210     4     3     -0.18268      16.73900      13.90900     41.61600
  211     4     3     -0.17757      18.13700      13.38900     41.24500
  212     4     3     -0.18065      18.23700      12.84900     39.80500
  213     4     3     -0.18402      17.32900      11.64200     39.49100
  214     4     3     -0.18420      17.55100      10.40800     40.38300
  215     4     3     -0.24049      18.96300       9.81400     40.27200
  216     4     3     -0.14222      14.38900      21.28000     45.98600
  217     4     4     -0.07069      12.99400      21.86000     46.14500
  218     4     4     -0.12299      12.02700      21.01000     46.76700
  219     4     4     -0.12080      10.68000      21.39700     46.98700
  220     4     4     -0.08528      10.31300      22.67900     46.56300
  221     4     5     -0.06467      11.25400      23.52000     45.94700
  222     4     6     -0.02137      12.61700      23.16400     45.70800
  223     4     4     -0.13687      13.37200      24.18500     45.06600
  224     4     4     -0.13045      12.80100      25.43900     44.70500
  225     4     4     -0.13650      11.44100      25.74700     44.96400
  226     4     4     -0.07589      10.67800      24.75600     45.59500
  227     4     3     -0.13905       9.21700      24.77500     46.00000
  228     4     3     -0.13951       8.97100      23.37900     46.65000
  229     4     1      0.13427      12.32400      20.02100     47.08200
  230     4     1      0.14011       9.97300      20.73200     47.45800
  231     4     2      0.09950      15.09800      22.07900     46.20800
  232     4     2      0.09950      14.57200      20.52700     46.75100
  233     4     2      0.09573      14.54900      21.51900     43.85400
  234     4     2      0.09573      15.74500      20.44500     44.51900
  235     4     2      0.09609      12.76800      19.78100     44.24300
  236     4     2      0.09609      14.00300      19.32300     43.11000
  237     4     2      0.09206      13.97400      18.43700     46.03400
  238     4     2      0.09206      15.15800      17.95200     44.86200
  239     4     2      0.08717      12.16100      17.33400     44.79500
  240     4     2      0.08717      13.40000      16.22300     45.27300
  241     4     2      0.08712      12.63000      15.72900     42.99400
  242     4     2      0.08712      12.94100      17.34900     42.47000
  243     4     2      0.09229      14.67200      15.89700     41.62900
  244     4     2      0.09229      15.40100      17.00600     42.74600
  245     4     2      0.09173      14.62200      14.11200     43.41600
  246     4     2      0.09173      15.35800      15.22900     44.53100
  247     4     2      0.08800      17.10100      13.82400     43.73600
  248     4     2      0.08800      17.38000      15.40100     43.05300
  249     4     2      0.09154      16.41900      14.63600     40.86900
  250     4     2      0.09154      16.02100      13.08900     41.57900
  251     4     2      0.08797      18.85700      14.20100     41.35400
  252     4     2      0.08797      18.45200      12.62200     41.95400
  253     4     2      0.09025      18.00300      13.65500     39.10800
  254     4     2      0.09025      19.27500      12.58400     39.59800
  255     4     2      0.08737      17.47300      11.35700     38.44800
  256     4     2      0.08737      16.28400      11.94700     39.56000
  257     4     2      0.08855      16.82700       9.64100     40.10200
  258     4     2      0.08855      17.33100      10.64900     41.42400
  259     4     2      0.08518      19.72000      10.50700     40.64000
  260     4     2      0.08518      19.20800       9.56300     39.24000
  261     4     2      0.08518      19.04600       8.90100     40.86200
  262     4     1      0.14324      14.41200      24.00100     44.84400
  263     4     1      0.14865      13.42200      26.17700     44.21900
  264     4     1      0.14277      11.01400      26.70000     44.68700
  265     4     2      0.11471       8.58900      24.92700     45.12200
  266     4     2      0.11471       9.03600      25.58600     46.70600
  267     4     2      0.11442       8.21600      22.80800     46.10700
  268     4     2      0.11442       8.66300      23.46700     47.69200
  269     5     3     -0.19035      27.88000      20.17600     30.70600
  270     5     3     -0.17366      28.34900      19.06300     29.75200
  271     5     3     -0.18298      26.70800      21.01000     30.15800
  272     5     3     -0.18054      26.20000      22.08100     31.14200
  273     5     3     -0.17910      27.23100      23.16000     31.53400
  274     5     3     -0.17385      27.84600      23.94300     30.35900
  275     5     3     -0.17523      26.81900      24.75000     29.54500
  276     5     3     -0.18199      27.43700      25.53900     28.38000
  277     5     3     -0.18268      28.32400      26.71200     28.82600
  278     5     3     -0.17757      28.82100      27.55200     27.63800
  279     5     3     -0.18065      29.80500      28.66900     28.03400
  280     5     3     -0.18402      29.23700      29.73600     28.99200
  281     5     3     -0.18420      27.99400      30.48200     28.47600
  282     5     3     -0.24049      28.24400      31.27600     27.18600
  283     5     3     -0.14222      27.34400      17.91200     29.55700
  284     5     4     -0.07069      27.05200      17.11200     30.81500
  285     5     4     -0.12299      25.84800      17.44900     31.51000
  286     5     4     -0.12080      25.43200      16.80100     32.70200
  287     5     4     -0.08528      26.26200      15.78800     33.19400
  288     5     5     -0.06467      27.44900      15.45200     32.52200
  289     5     6     -0.02137      27.90000      16.08300     31.32200
  290     5     4     -0.13687      29.13400      15.57100     30.83300
  291     5     4     -0.13045      29.83700      14.52400     31.49600
  292     5     4     -0.13650      29.34800      13.92800     32.68700
  293     5     4     -0.07589      28.13400      14.41700     33.18700
  294     5     3     -0.13905      27.36100      13.99900     34.42100
  295     5     3     -0.13951      26.10300      14.92100     34.42800
  296     5     1      0.13427      25.22200      18.23700     31.12100
  297     5     1      0.14011      24.51800      17.07900     33.20400
  298     5     2      0.09950      27.74000      17.21600     28.81700
  299     5     2      0.09950      26.41500      18.27900     29.12300
  300     5     2      0.09573      29.28100      18.64400     30.13600
  301     5     2      0.09573      28.59700      19.49700     28.78200
  302     5     2      0.09609      27.61700      19.74500     31.67400
  303     5     2      0.09609      28.72800      20.83300     30.89800
  304     5     2      0.09206      25.87200      20.35200     29.92500
  305     5     2      0.09206      26.98900      21.47400     29.21200
  306     5     2      0.08717      25.84900      21.58700     32.05000
  307     5     2      0.08717      25.31700      22.56000     30.72000
  308     5     2      0.08712      26.75800      23.86400     32.22000
  309     5     2      0.08712      28.03400      22.69800     32.11100
  310     5     2      0.09229      28.59600      24.62100     30.76900
  311     5     2      0.09229      28.39500      23.26600     29.70400
  312     5     2      0.09173      26.27100      25.42700     30.20100
  313     5     2      0.09173      26.07600      24.06700     29.13100
  314     5     2      0.08800      26.62600      25.92900     27.76100
  315     5     2      0.08800      28.00500      24.86500     27.73600
  316     5     2      0.09154      29.18400      26.34000     29.38400
  317     5     2      0.09154      27.76100      27.34600     29.51200
  318     5     2      0.08797      29.32100      26.89400     26.92500
  319     5     2      0.08797      27.97300      27.97500     27.09800
  320     5     2      0.09025      30.68600      28.21700     28.49400
  321     5     2      0.09025      30.17300      29.15500     27.12900
  322     5     2      0.08737      30.02200      30.46200     29.21300
  323     5     2      0.08737      29.00200      29.27300     29.95200
  324     5     2      0.08855      27.65700      31.17200     29.25100
  325     5     2      0.08855      27.16900      29.78400     28.32800
  326     5     2      0.08518      28.48500      30.61900     26.35000
  327     5     2      0.08518      29.06500      31.98300     27.30700
  328     5     2      0.08518      27.35800      31.84600     26.90400
  329     5     1      0.14324      29.55200      15.99100     29.93200
  330     5     1      0.14865      30.77100      14.17400     31.08000
  331     5     1      0.14277      29.88700      13.13400     33.18400
  332     5     2      0.11471      27.97200      14.14600     35.31200
  333     5     2      0.11471      27.08800      12.94500     34.35200
  334     5     2      0.11442      26.06400      15.54500     35.32100
  335     5     2      0.11442      25.18000      14.34400     34.36100
  336     6     3     -0.19035      28.84200      36.73200     25.86400
  337     6     3     -0.17366      27.82000      35.58300     25.92800
  338     6     3     -0.18298      30.25000      36.28700     25.42900
  339     6     3     -0.18054      31.25400      37.44900     25.30500
  340     6     3     -0.17910      31.53100      38.22400     26.60900
  341     6     3     -0.17385      32.03600      37.37300     27.78900
  342     6     3     -0.17523      33.38600      36.68300     27.52400
  343     6     3     -0.18199      33.89200      35.84200     28.70600
  344     6     3     -0.18268      34.31600      36.67700     29.92500
  345     6     3     -0.17757      34.93400      35.81400     31.03700
  346     6     3     -0.18065      35.26700      36.59800     32.32000
  347     6     3     -0.18402      36.30300      37.72800     32.15000
  348     6     3     -0.18420      37.67100      37.28200     31.60400
  349     6     3     -0.24049      38.40000      36.28000     32.51100
  350     6     3     -0.14222      27.43800      34.98000     24.56300
  351     6     4     -0.07069      26.73200      35.94500     23.62500
  352     6     4     -0.12299      27.54700      36.55800     22.62300
  353     6     4     -0.12080      27.04500      37.48500     21.67300
  354     6     4     -0.08528      25.68200      37.79000     21.74700
  355     6     5     -0.06467      24.87300      37.19700     22.73000
  356     6     6     -0.02137      25.34400      36.26200     23.70300
  357     6     4     -0.13687      24.33400      35.80400     24.59500
  358     6     4     -0.13045      22.98300      36.25000     24.50600
  359     6     4     -0.13650      22.56300      37.18000     23.52000
  360     6     4     -0.07589      23.54100      37.64500     22.63200
  361     6     3     -0.13905      23.41400      38.63000     21.48700
  362     6     3     -0.13951      24.85300      38.72900     20.89200
  363     6     1      0.13427      28.59800      36.31800     22.58300
  364     6     1      0.14011      27.68600      37.93200     20.92900
  365     6     2      0.09950      26.76600      34.13700     24.72300
  366     6     2      0.09950      28.31000      34.55100     24.07100
  367     6     2      0.09573      26.91200      35.95000     26.40800
  368     6     2      0.09573      28.20100      34.79400     26.58000
  369     6     2      0.09609      28.47300      37.51700     25.20300
  370     6     2      0.09609      28.90000      37.18500     26.85400
  371     6     2      0.09206      30.19200      35.79500     24.45900
  372     6     2      0.09206      30.63400      35.53200     26.11700
  373     6     2      0.08717      30.88900      38.15000     24.55200
  374     6     2      0.08717      32.19200      37.06600     24.90400
  375     6     2      0.08712      32.25800      39.01000     26.40200
  376     6     2      0.08712      30.62500      38.75100     26.91400
  377     6     2      0.09229      32.12900      38.02900     28.65500
  378     6     2      0.09229      31.28400      36.63200     28.06500
  379     6     2      0.09173      34.13600      37.42400     27.24700
  380     6     2      0.09173      33.28500      36.02200     26.66100
  381     6     2      0.08800      34.74900      35.25600     28.36800
  382     6     2      0.08800      33.13200      35.11600     28.99700
  383     6     2      0.09154      33.45700      37.21500     30.32600
  384     6     2      0.09154      35.03500      37.43400     29.60700
  385     6     2      0.08797      34.23300      35.01800     31.29600
  386     6     2      0.08797      35.82600      35.30800     30.66600
  387     6     2      0.09025      34.34700      37.02400     32.72400
  388     6     2      0.09025      35.61600      35.90000     33.08200
  389     6     2      0.08737      36.44800      38.21900     33.11400