LAMMPS data file of the system for full atom style

    4958 atoms
    4921 bonds
    9768 angles
   14319 dihedrals

    2 atom types
    2 bond types
    3 angle types
    2 dihedral types

    0.000000    50.000000 xlo xhi
    0.000000    50.000000 ylo yhi
    0.000000    50.000000 zlo zhi

 Masses 

    1       1.0080
    2      12.0110

 Pair Coeffs 

    1       0.0300       2.5000
    2       0.0660       3.5000

 Bond Coeffs 

    1     268.0000        1.5290
    2     340.0000        1.0900

 Angle Coeffs 

    1      33.0000      107.8000
    2      37.5000      110.7000
    3      58.3500      112.7000

 Dihedral Coeffs 

    1       0.0000        0.0000       0.3000        0.0000
    2       0.8500       -0.2000       0.2000        0.0000

 Atoms 

    1     1     2     -0.17814      34.38600      17.91200     34.12200
    2     1     2     -0.18703      34.61000      16.67400     35.00500
    3     1     2     -0.18460      35.67900      18.48900     33.51700
    4     1     2     -0.17512      36.73200      18.96300     34.53600
    5     1     2     -0.16571      36.24700      20.10700     35.44600
    6     1     2     -0.15051      37.30500      20.59200     36.45600
    7     1     2     -0.14709      38.58100      21.19200     35.83800
    8     1     2     -0.14391      38.32500      22.43600     34.97100
    9     1     2     -0.15899      39.61100      23.12900     34.48400
   10     1     2     -0.16173      40.51500      22.27100     33.57600
   11     1     2     -0.15404      39.84600      21.74000     32.29400
   12     1     2     -0.16294      39.27400      22.80600     31.33600
   13     1     2     -0.16543      40.32800      23.70000     30.65000
   14     1     2     -0.17158      40.60500      25.02200     31.39000
   15     1     2     -0.18941      41.54900      25.96700     30.62700
   16     1     2     -0.19260      42.99400      25.45000     30.53700
   17     1     2     -0.19126      43.93300      26.46200     29.86400
   18     1     2     -0.15636      45.38000      25.94800     29.77600
   19     1     2     -0.16597      46.34300      26.92900     29.08000
   20     1     2     -0.16647      46.59400      26.64100     27.58800
   21     1     2     -0.17543      45.35200      26.78900     26.69300
   22     1     2     -0.18658      45.64400      26.59800     25.19500
   23     1     2     -0.24471      46.47300      27.73300     24.57600
   24     1     2     -0.18735      33.29100      16.05800     35.49000
   25     1     2     -0.18379      33.51500      14.82200     36.37700
   26     1     2     -0.16898      32.21900      14.24300     36.96600
   27     1     2     -0.17928      31.28300      13.63000     35.90900
   28     1     2     -0.17382      30.08600      12.87100     36.50600
   29     1     2     -0.15831      29.04800      13.78500     37.18100
   30     1     2     -0.15608      27.88700      13.03500     37.86100
   31     1     2     -0.16304      26.97200      12.25200     36.89900
   32     1     2     -0.17011      27.30600      10.75400     36.76600
   33     1     2     -0.17883      26.90200       9.92500     37.99700
   34     1     2     -0.19097      27.19700       8.42900     37.81300
   35     1     2     -0.15336      26.77800       7.59500     39.03400
   36     1     2     -0.16202      27.19400       6.11300     38.96500
   37     1     2     -0.14658      26.52900       5.30700     37.83500
   38     1     2     -0.16224      27.40100       5.17900     36.57300
   39     1     2     -0.17230      26.67900       4.50900     35.39100
   40     1     2     -0.17842      26.33800       3.02900     35.63600
   41     1     2     -0.17982      25.80500       2.30200     34.39000
   42     1     2     -0.18098      24.41600       2.79000     33.93800
   43     1     2     -0.19018      23.88200       2.05900     32.69500
   44     1     2     -0.24597      23.54200       0.58200     32.94500
   45     1     1      0.08096      23.09500       0.13300     32.05700
   46     1     1      0.08096      22.83100       0.47100     33.76300
   47     1     1      0.08096      24.43000      -0.00200     33.18800
   48     1     1      0.09488      24.60000       2.14100     31.87700
   49     1     1      0.09488      22.98000       2.56800     32.35200
   50     1     1      0.09294      23.70200       2.69300     34.75900
   51     1     1      0.09294      24.46500       3.85500     33.71000
   52     1     1      0.08937      25.75400       1.23700     34.61700
   53     1     1      0.08937      26.51900       2.39900     33.57100
   54     1     1      0.09031      27.23600       2.51200     35.97600
   55     1     1      0.09031      25.61400       2.93500     36.44700
   56     1     1      0.08978      27.31800       4.58400     34.51000
   57     1     1      0.08978      25.77700       5.07400     35.15600
   58     1     1      0.07617      28.31100       4.62500     36.81000
   59     1     1      0.07617      27.73500       6.16400     36.25300
   60     1     1      0.07410      26.31900       4.30500     38.21100
   61     1     1      0.07410      25.55800       5.73900     37.58800
   62     1     1      0.06894      28.28000       6.02400     38.91300
   63     1     1      0.06894      26.91400       5.65600     39.91600
   64     1     1      0.07969      25.69800       7.66500     39.17200
   65     1     1      0.07969      27.22100       8.03100     39.92900
   66     1     1      0.09888      28.26100       8.28700     37.62300
   67     1     1      0.09888      26.67000       8.06800     36.92900
   68     1     1      0.09101      25.83900      10.06200     38.19700
   69     1     1      0.09101      27.42800      10.28700     38.88000
   70     1     1      0.08758      28.36600      10.61600     36.55800
   71     1     1      0.08758      26.77900      10.36200     35.89400
   72     1     1      0.08243      26.99400      12.72100     35.91400
   73     1     1      0.08243      25.93700      12.34700     37.23300
   74     1     1      0.07659      27.27700      13.77900     38.37300
   75     1     1      0.07659      28.27200      12.39100     38.65200
   76     1     1      0.08100      29.54000      14.39200     37.94100
   77     1     1      0.08100      28.65000      14.49100     36.45000
   78     1     1      0.08890      30.43800      12.11900     37.21300
   79     1     1      0.08890      29.59900      12.32500     35.69700
   80     1     1      0.09026      30.91900      14.40300     35.22900
   81     1     1      0.09026      31.85600      12.93600     35.29300
   82     1     1      0.08982      31.70100      15.01800     37.53100
   83     1     1      0.08982      32.48500      13.47200     37.69200
   84     1     1      0.08504      34.17600      15.09300     37.20200
   85     1     1      0.08504      34.04300      14.04900     35.81400
   86     1     1      0.08998      32.68200      15.78800     34.62700
   87     1     1      0.08998      32.72300      16.80500     36.04600
   88     1     1      0.09329      35.17900      15.92700     34.44900
   89     1     1      0.09329      35.21800      16.94300     35.86900
   90     1     1      0.09165      33.85800      18.68100     34.68600
   91     1     1      0.09165      33.71700      17.64400     33.30200
   92     1     1      0.08814      36.13300      17.73600     32.86900
   93     1     1      0.08814      35.42200      19.32000     32.86000
   94     1     1      0.09006      37.07700      18.12400     35.14300
   95     1     1      0.09006      37.60600      19.29600     33.97700
   96     1     1      0.08715      35.89400      20.94100     34.84000
   97     1     1      0.08715      35.38000      19.76900     36.01300
   98     1     1      0.07585      37.58300      19.76000     37.10500
   99     1     1      0.07585      36.84900      21.33400     37.11300
  100     1     1      0.06795      39.26000      21.46000     36.64800
  101     1     1      0.06795      39.10300      20.43000     35.26100
  102     1     1      0.07312      37.70400      22.17800     34.11300
  103     1     1      0.07312      37.74300      23.15600     35.54900
  104     1     1      0.07682      39.33600      24.04500     33.96100
  105     1     1      0.07682      40.18800      23.45600     35.35000
  106     1     1      0.08530      41.40500      22.84100     33.30800
  107     1     1      0.08530      40.89500      21.42300     34.14700
  108     1     1      0.08034      39.04400      21.05400     32.57200
  109     1     1      0.08034      40.56600      21.12600     31.75100
  110     1     1      0.07298      38.74100      22.26900     30.55100
  111     1     1      0.07298      38.51200      23.40900     31.83000
  112     1     1      0.08186      39.96500      23.94500     29.65200
  113     1     1      0.08186      41.24800      23.13600     30.49900
  114     1     1      0.09407      39.65800      25.53900     31.55000
  115     1     1      0.09407      41.01000      24.83500     32.38300
  116     1     1      0.08984      41.15500      26.15500     29.62700
  117     1     1      0.08984      41.55100      26.93300     31.13500
  118     1     1      0.09352      43.01900      24.51400     29.97600
  119     1     1      0.09352      43.36200      25.22000     31.53700
  120     1     1      0.09320      43.55300      26.70000     28.87200
  121     1     1      0.09320      43.91800      27.40000     30.42400
  122     1     1      0.08964      45.41300      24.97600     29.28200
  123     1     1      0.08964      45.73800      25.77300     30.79200
  124     1     1      0.07774      46.01100      27.95900     29.21900
  125     1     1      0.07774      47.30700      26.86900     29.58600
  126     1     1      0.08285      47.01300      25.64000     27.47200
  127     1     1      0.08285      47.36900      27.32700     27.24500
  128     1     1      0.09188      44.61500      26.04000     26.98700
  129     1     1      0.09188      44.88300      27.76000     26.85800
  130     1     1      0.08949      46.14300      25.64100     25.03100
  131     1     1      0.08949      44.69500      26.53400     24.66100
  132     1     1      0.08211      45.99700      28.70200     24.73200
  133     1     1      0.08211      46.58200      27.59000     23.50100
  134     1     1      0.08210      47.47600      27.78100     24.99900
  135     2     2     -0.17814      13.78900       6.42300     12.36400
  136     2     2     -0.18703      14.56000       5.56500     11.34700
  137     2     2     -0.18460      12.71100       5.64800     13.14300
  138     2     2     -0.17512      11.59400       5.02300     12.28600
  139     2     2     -0.16571      10.76400       6.05300     11.49600
  140     2     2     -0.15051       9.63900       5.43000     10.65000
  141     2     2     -0.14709       8.55200       4.68100     11.44300
  142     2     2     -0.14391       7.79100       5.56900     12.44300
  143     2     2     -0.15899       6.60200       4.86400     13.12000
  144     2     2     -0.16173       6.97000       3.63600     13.97900
  145     2     2     -0.15404       7.96800       3.90800     15.12100
  146     2     2     -0.16294       7.53800       4.96400     16.16000
  147     2     2     -0.16543       6.33800       4.56200     17.04100
  148     2     2     -0.17158       4.97700       5.04800     16.50700
  149     2     2     -0.18941       3.80500       4.76600     17.46200
  150     2     2     -0.19260       3.47400       3.27200     17.60200
  151     2     2     -0.19126       2.23400       3.03000     18.47600
  152     2     2     -0.15636       1.90000       1.53500     18.61500
  153     2     2     -0.16597       0.67700       1.25600     19.51100
  154     2     2     -0.16647       1.01200       0.88600     20.96800
  155     2     2     -0.17543       1.69400       2.00800     21.76900
  156     2     2     -0.18658       1.92700       1.65600     23.24700
  157     2     2     -0.24471       0.63700       1.57400     24.07600
  158     2     2     -0.18735      15.70300       6.34000     10.67800
  159     2     2     -0.18379      16.47100       5.48400      9.65900
  160     2     2     -0.16898      17.55500       6.26000      8.89400
  161     2     2     -0.17928      18.72900       6.71200      9.78200
  162     2     2     -0.17382      19.90800       7.30800      8.99300
  163     2     2     -0.15831      19.60100       8.67700      8.36100
  164     2     2     -0.15608      20.74000       9.24600      7.49500
  165     2     2     -0.16304      22.03000       9.58900      8.26800
  166     2     2     -0.17011      23.11500       8.49600      8.23100
  167     2     2     -0.17883      23.82900       8.38800      6.87300
  168     2     2     -0.19097      24.94000       7.32900      6.88200
  169     2     2     -0.15336      25.66800       7.23100      5.53200
  170     2     2     -0.16202      26.68500       6.07700      5.43900
  171     2     2     -0.14658      27.88600       6.19700      6.39500
  172     2     2     -0.16224      27.72000       5.39200      7.69700
  173     2     2     -0.17230      28.84600       5.63300      8.71800
  174     2     2     -0.17842      30.22000       5.11700      8.25400
  175     2     2     -0.17982      31.30100       5.16900      9.34600
  176     2     2     -0.18098      31.71100       6.59900      9.74100
  177     2     2     -0.19018      32.79600       6.64800     10.83000
  178     2     2     -0.24597      34.16500       6.13300     10.36200
  179     2     1      0.08096      34.91500       6.26400     11.14300
  180     2     1      0.08096      34.51200       6.67300      9.48000
  181     2     1      0.08096      34.13600       5.07100     10.11800
  182     2     1      0.09488      32.47000       6.08900     11.70800
  183     2     1      0.09488      32.91000       7.68100     11.16200
  184     2     1      0.09294      32.04700       7.14800      8.86000
  185     2     1      0.09294      30.83600       7.13500     10.11100
  186     2     1      0.08937      32.17700       4.63400      8.97700
  187     2     1      0.08937      30.96500       4.61900     10.22600
  188     2     1      0.09031      30.11500       4.08300      7.92300
  189     2     1      0.09031      30.56000       5.67600      7.38100
  190     2     1      0.08978      28.57800       5.13500      9.65100
  191     2     1      0.08978      28.89700       6.69700      8.95000
  192     2     1      0.07617      27.65500       4.32800      7.46600
  193     2     1      0.07617      26.77300       5.64500      8.17000
  194     2     1      0.07410      28.77200       5.83100      5.87600
  195     2     1      0.07410      28.08600       7.24700      6.61600
  196     2     1      0.06894      26.18500       5.11600      5.56800
  197     2     1      0.06894      27.06800       6.06700      4.41800
  198     2     1      0.07969      26.16800       8.17600      5.31500
  199     2     1      0.07969      24.93000       7.09700      4.74100
  200     2     1      0.09888      24.51700       6.35700      7.13900
  201     2     1      0.09888      25.66000       7.57300      7.66500
  202     2     1      0.09101      24.25400       9.35600      6.60600
  203     2     1      0.09101      23.10900       8.14500      6.09100
  204     2     1      0.08758      22.69400       7.53000      8.50400
  205     2     1      0.08758      23.85800       8.72400      8.99700
  206     2     1      0.08243      21.78100       9.82300      9.30400
  207     2     1      0.08243      22.45500      10.51100      7.86500
  208     2     1      0.07659      20.37100      10.16400      7.03700
  209     2     1      0.07659      20.94700       8.57600      6.66200
  210     2     1      0.08100      18.71600       8.59400      7.73000
  211     2     1      0.08100      19.34200       9.39300      9.14300
  212     2     1      0.08890      20.23400       6.60500      8.22500
  213     2     1      0.08890      20.74700       7.41900      9.68100
  214     2     1      0.09026      18.38800       7.43600     10.52400
  215     2     1      0.09026      19.09300       5.85300     10.34600
  216     2     1      0.08982      17.10100       7.11700      8.39600
  217     2     1      0.08982      17.94000       5.62100      8.09800
  218     2     1      0.08504      15.76400       5.07800      8.93400
  219     2     1      0.08504      16.91600       4.62000     10.15700
  220     2     1      0.08998      16.38700       6.70400     11.44600
  221     2     1      0.08998      15.30000       7.22400     10.18100
  222     2     1      0.09329      14.96000       4.68100     11.84600
  223     2     1      0.09329      13.87600       5.20200     10.57900
  224     2     1      0.09165      13.34600       7.28600     11.86400
  225     2     1      0.09165      14.49600       6.83900     13.08400
  226     2     1      0.08814      13.19200       4.85800     13.72200
  227     2     1      0.08814      12.26000       6.31400     13.88000
  228     2     1      0.09006      12.01200       4.28000     11.60400
  229     2     1      0.09006      10.93600       4.46900     12.95400
  230     2     1      0.08715      10.35500       6.80000     12.17500
  231     2     1      0.08715      11.42200       6.59900     10.82000
  232     2     1      0.07585      10.07900       4.74500      9.92100
  233     2     1      0.07585       9.16600       6.21600     10.06000
  234     2     1      0.06795       7.84000       4.25700     10.73400
  235     2     1      0.06795       8.99400       3.82700     11.95600
  236     2     1      0.07312       8.47100       5.94900     13.20500
  237     2     1      0.07312       7.41600       6.44900     11.91800
  238     2     1      0.07682       6.07000       5.59000     13.73500
  239     2     1      0.07682       5.88700       4.55700     12.35500
  240     2     1      0.08530       6.06200       3.19700     14.39100
  241     2     1      0.08530       7.38200       2.85900     13.33500
  242     2     1      0.08034       8.92400       4.21000     14.69100
  243     2     1      0.08034       8.17600       2.96900     15.63500
  244     2     1      0.07298       8.39100       5.11900     16.82100
  245     2     1      0.07298       7.37000       5.93200     15.68800
  246     2     1      0.08186       6.48400       4.99800     18.03000
  247     2     1      0.08186       6.33600       3.48300     17.19200
  248     2     1      0.09407       5.03100       6.12400     16.33900
  249     2     1      0.09407       4.76200       4.60800     15.53400
  250     2     1      0.08984       4.01500       5.19700     18.44200
  251     2     1      0.08984       2.92400       5.28900     17.08700
  252     2     1      0.09352       4.32400       2.74200     18.03500
  253     2     1      0.09352       3.31300       2.83900     16.61400
  254     2     1      0.09320       2.39400       3.47600     19.45700
  255     2     1      0.09320       1.37800       3.55200     18.04600
  256     2     1      0.08964       2.76500       0.97900     18.97900
  257     2     1      0.08964       1.69500       1.14100     17.61800
  258     2     1      0.07774      -0.02100       2.09400     19.48100
  259     2     1      0.07774       0.13100       0.41400     19.08200
  260     2     1      0.08285       1.63700      -0.00900     20.98500
  261     2     1      0.08285       0.08100       0.60700     21.46000
  262     2     1      0.09188       2.66400       2.22200     21.31900
  263     2     1      0.09188       1.11400       2.92900     21.69500
  264     2     1      0.08949       2.47900       0.71700     23.32500
  265     2     1      0.08949       2.57300       2.41700     23.68900
  266     2     1      0.08211       0.06400       2.49900     24.01100
  267     2     1      0.08211       0.86300       1.40200     25.12900
  268     2     1      0.08210      -0.00600       0.75700     23.74700
  269     3     2     -0.17814      20.06800      14.20100     44.98500
  270     3     2     -0.18703      20.13000      15.51200     45.78400
  271     3     2     -0.18460      18.86400      13.30900     45.34300
  272     3     2     -0.17512      18.80200      12.83700     46.80800
  273     3     2     -0.16571      20.00200      11.97100     47.23500
  274     3     2     -0.15051      19.93300      11.48600     48.69500
  275     3     2     -0.14709      18.74000      10.57300     49.03400
  276     3     2     -0.14391      18.71300       9.26400     48.22600
  277     3     2     -0.15899      17.61600       8.28200     48.67400
  278     3     2     -0.16173      16.17000       8.79800     48.51900
  279     3     2     -0.15404      15.76900       9.21000     47.09000
  280     3     2     -0.16294      15.88200       8.11500     46.01000
  281     3     2     -0.16543      14.88900       6.94400     46.16100
  282     3     2     -0.17158      15.45200       5.74000     46.94000
  283     3     2     -0.18941      14.50800       4.52700     46.96300
  284     3     2     -0.19260      13.23300       4.75600     47.79100
  285     3     2     -0.19126      12.36300       3.49400     47.88300
  286     3     2     -0.15636      11.08900       3.72200     48.71400
  287     3     2     -0.16597      10.17900       2.48100     48.80200
  288     3     2     -0.16647       9.01400       2.45900     47.79500
  289     3     2     -0.17543       9.44700       2.38300     46.32100
  290     3     2     -0.18658       8.27100       2.25900     45.33800
  291     3     2     -0.24471       7.54800       0.90600     45.40500
  292     3     2     -0.18735      21.27000      16.42600     45.31700
  293     3     2     -0.18379      21.33500      17.73600     46.11900
  294     3     2     -0.16898      22.53100      18.62800     45.74700
  295     3     2     -0.17928      22.44800      19.20600     44.32300
  296     3     2     -0.17382      23.52900      20.25600     44.01600
  297     3     2     -0.15831      24.94800      19.66900     43.90700
  298     3     2     -0.15608      26.05400      20.71800     43.68800
  299     3     2     -0.16304      25.97100      21.47400     42.34600
  300     3     2     -0.17011      25.26900      22.84400     42.41900
  301     3     2     -0.17883      26.11800      23.93000     43.10200
  302     3     2     -0.19097      25.41700      25.29600     43.11200
  303     3     2     -0.15336      26.26900      26.38800     43.77700
  304     3     2     -0.16202      25.54900      27.73800     43.95400
  305     3     2     -0.14658      25.16900      28.44400     42.63900
  306     3     2     -0.16224      23.71200      28.19700     42.20600
  307     3     2     -0.17230      23.37800      28.77100     40.81800
  308     3     2     -0.17842      23.42100      30.30900     40.76000
  309     3     2     -0.17982      22.89000      30.89300     39.44000
  310     3     2     -0.18098      23.78700      30.58900     38.22600
  311     3     2     -0.19018      23.25700      31.17900     36.90900
  312     3     2     -0.24597      23.30300      32.71300     36.85500
  313     3     1      0.08096      22.99300      33.07500     35.87400
  314     3     1      0.08096      24.31000      33.08700     37.04000
  315     3     1      0.08096      22.63600      33.16400     37.59000
  316     3     1      0.09488      22.23900      30.83200     36.72700
  317     3     1      0.09488      23.85600      30.78600     36.08500
  318     3     1      0.09294      24.80000      30.95000     38.41100
  319     3     1      0.09294      23.87200      29.50900     38.10300
  320     3     1      0.08937      22.80500      31.97400     39.56100
  321     3     1      0.08937      21.87700      30.53300     39.25700
  322     3     1      0.09031      22.82100      30.70900     41.57800
  323     3     1      0.09031      24.43700      30.66700     40.93200
  324     3     1      0.08978      22.37800      28.43500     40.53800
  325     3     1      0.08978      24.05600      28.34300     40.08000
  326     3     1      0.07617      23.03200      28.61300     42.95000
  327     3     1      0.07617      23.50800      27.12900     42.18900
  328     3     1      0.07410      25.31000      29.51700     42.77600
  329     3     1      0.07410      25.86000      28.15500     41.84500
  330     3     1      0.06894      24.67400      27.62400     44.59500
  331     3     1      0.06894      26.22500      28.39400     44.50500
  332     3     1      0.07969      27.18700      26.53500     43.20700
  333     3     1      0.07969      26.58300      26.04000     44.76200
  334     3     1      0.09888      24.46100      25.21200     43.63200
  335     3     1      0.09888      25.19000      25.58800     42.08600
  336     3     1      0.09101      27.07700      24.02000     42.59100
  337     3     1      0.09101      26.34500      23.63700     44.12800
  338     3     1      0.08758      24.30800      22.75500     42.92300
  339     3     1      0.08758      25.04300      23.16800     41.40200
  340     3     1      0.08243      25.47200      20.84700     41.60600
  341     3     1      0.08243      26.98000      21.62300     41.95600
  342     3     1      0.07659      27.00900      20.19300     43.71700
  343     3     1      0.07659      26.08400      21.41000     44.52900
  344     3     1      0.08100      25.18500      19.12400     44.82000
  345     3     1      0.08100      24.97900      18.93000     43.10500
  346     3     1      0.08890      23.50700      21.04400     44.77000
  347     3     1      0.08890      23.27200      20.73200     43.06900
  348     3     1      0.09026      22.50100      18.40500     43.58300
  349     3     1      0.09026      21.47000      19.67200     44.19000
  350     3     1      0.08982      23.45500      18.06500     45.87700
  351     3     1      0.08982      22.58100      19.45200     46.46100
  352     3     1      0.08504      21.40300      17.49700     47.18200
  353     3     1      0.08504      20.40500      18.29500     45.99700
  354     3     1      0.08998      21.14100      16.64700     44.25700
  355     3     1      0.08998      22.22100      15.89700     45.40800
  356     3     1      0.09329      19.17900      16.04000     45.69400
  357     3     1      0.09329      20.26000      15.29200     46.84500
  358     3     1      0.09165      20.99800      13.64500     45.10800
  359     3     1      0.09165      20.01100      14.43800     43.92100
  360     3     1      0.08814      17.94300      13.84700     45.10800
  361     3     1      0.08814      18.86400      12.43600     44.69000
  362     3     1      0.09006      18.70400      13.69300     47.47700
  363     3     1      0.09006      17.88400      12.26400     46.93100
  364     3     1      0.08715      20.10600      11.12100     46.56100
  365     3     1      0.08715      20.91900      12.54900     47.12100
  366     3     1      0.07585      19.91200      12.35500     49.35700
  367     3     1      0.07585      20.85800      10.96100     48.93600
  368     3     1      0.06795      18.78300      10.33200     50.09600
  369     3     1      0.06795      17.80800      11.12100     48.89700
  370     3     1      0.07312      18.59900       9.47700     47.16400
  371     3     1      0.07312      19.68000       8.76800     48.32500
  372     3     1      0.07682      17.73100       7.35300     48.11500
  373     3     1      0.07682      17.78400       8.01100     49.71700
  374     3     1      0.08530      15.47400       8.04200     48.88400
  375     3     1      0.08530      16.02100       9.65000     49.18200
  376     3     1      0.08034      16.37500      10.06500     46.78600
  377     3     1      0.08034      14.74400       9.58500     47.10800
  378     3     1      0.07298      15.67800       8.59500     45.05300
  379     3     1      0.07298      16.90600       7.75000     45.92800
  380     3     1      0.08186      14.61800       6.60000     45.16300
  381     3     1      0.08186      13.96200       7.30200     46.61000
  382     3     1      0.09407      16.39200       5.43400     46.47900
  383     3     1      0.09407      15.70200       6.02000     47.96200
  384     3     1      0.08984      14.24500       4.24300     45.94200
  385     3     1      0.08984      15.05000       3.67700     47.38000
  386     3     1      0.09352      12.64400       5.56300     47.35100
  387     3     1      0.09352      13.50400       5.08600     48.79500
  388     3     1      0.09320      12.10700       3.16000     46.87800
  389     3     1      0.09320      12.94300       2.68400     48.32900
  390     3     1      0.08964      10.52500       4.57300     48.32900
  391     3     1      0.08964      11.39100       4.00100     49.72500
  392     3     1      0.07774      10.76800       1.56500     48.72400
  393     3     1      0.07774       9.74200       2.45500     49.80100
  394     3     1      0.08285       8.38100       3.33600     47.94600
  395     3     1      0.08285       8.38800       1.59900     48.03200
  396     3     1      0.09188       9.99900       3.28900     46.06900
  397     3     1      0.09188      10.14000       1.55300     46.17600
  398     3     1      0.08949       7.55900       3.07000     45.50400
  399     3     1      0.08949       8.64900       2.39800     44.32400
  400     3     1      0.08211       8.23900       0.07900     45.24700
  401     3     1      0.08211       6.77700       0.84100     44.63600
  402     3     1      0.08210       7.05600       0.75500     46.36600
  403     4     2     -0.17814      22.77800      41.31500     21.62000
  404     4     2     -0.18703      22.19800      42.46600     22.45800
  405     4     2     -0.18460      23.93900      40.57000     22.30400