LAMMPS data file of the system for full atom style

    4964 atoms
    5329 bonds
   11388 angles
   20367 dihedrals

    2 atom types
    2 bond types
    3 angle types
    2 dihedral types

    0.000000    50.000000 xlo xhi
    0.000000    50.000000 ylo yhi
    0.000000    50.000000 zlo zhi

 Masses 

    1       1.0080
    2      12.0110

 Pair Coeffs 

    1       0.0300       2.5000
    2       0.0660       3.5000

 Bond Coeffs 

    1     268.0000        1.5290
    2     340.0000        1.0900

 Angle Coeffs 

    1      33.0000      107.8000
    2      37.5000      110.7000
    3      58.3500      112.7000

 Dihedral Coeffs 

    1       0.0000        0.0000       0.3000        0.0000
    2       0.8500       -0.2000       0.2000        0.0000

 Atoms 

    1     1     2     -0.10010      37.39000      28.37200     14.20400
    2     1     2     -0.11185      38.89600      28.01400     14.42400
    3     1     2     -0.18479      39.21700      27.41200     15.82300
    4     1     2     -0.17791      40.67300      26.89400     15.95000
    5     1     2     -0.11921      41.63400      27.65800     15.02300
    6     1     2     -0.19712      43.08800      27.79500     15.46200
    7     1     2     -0.19961      43.60800      28.93900     14.58100
    8     1     2     -0.08492      36.66600      29.09200     15.39700
    9     1     2     -0.11001      35.13900      29.34600     15.12000
   10     1     2     -0.16467      34.24300      28.24900     15.74500
   11     1     2     -0.17114      32.75000      28.54300     15.54600
   12     1     2     -0.16882      32.37200      29.86600     16.22000
   13     1     2     -0.11501      33.18300      31.04600     15.65200
   14     1     2     -0.11845      34.68900      30.75300     15.58000
   15     1     2     -0.13041      35.20400      31.08700     16.97100
   16     1     2     -0.17036      36.73800      31.16400     16.99600
   17     1     2     -0.16305      37.39000      30.40600     15.81700
   18     1     2     -0.17951      34.43200      32.35500     17.35000
   19     1     2     -0.19109      33.10400      32.28500     16.56700
   20     1     2     -0.24510      36.65200      27.09600     13.74200
   21     1     2     -0.11501      42.41000      29.88800     14.35100
   22     1     2     -0.11119      41.17600      29.09800     14.83000
   23     1     2     -0.08304      39.89000      29.13900     13.97100
   24     1     2     -0.17941      40.14300      29.11300     12.43500
   25     1     2     -0.18039      41.59900      29.37200     12.00600
   26     1     2     -0.16634      42.28600      30.40300     12.90600
   27     1     1      0.09260      42.53900      30.75500     15.00200
   28     1     1      0.09597      40.92900      29.49700     15.81600
   29     1     1      0.11005      39.45600      30.11800     14.16700
   30     1     1      0.08456      39.83000      28.16900     11.99000
   31     1     1      0.08456      39.50000      29.86300     11.97400
   32     1     1      0.08611      41.62200      29.70400     10.96700
   33     1     1      0.08611      42.15900      28.43800     12.03300
   34     1     1      0.09168      43.26900      30.66400     12.51300
   35     1     1      0.09168      41.70200      31.32500     12.89800
   36     1     1      0.10560      39.11900      27.17800     13.76400
   37     1     1      0.09857      39.05600      28.16100     16.59600
   38     1     1      0.09857      38.52400      26.60200     16.05600
   39     1     1      0.09005      40.99000      26.98000     16.99000
   40     1     1      0.09005      40.71700      25.83200     15.70900
   41     1     1      0.11857      41.62800      27.17000     14.04600
   42     1     1      0.10030      43.65800      26.87400     15.33400
   43     1     1      0.10030      43.14200      28.08100     16.51400
   44     1     1      0.09703      43.95300      28.52800     13.63100
   45     1     1      0.09703      44.46000      29.45000     15.03200
   46     1     1      0.08629      37.34800      29.05200     13.35100
   47     1     1      0.09069      36.72500      28.43500     16.26500
   48     1     1      0.10029      34.97100      29.33700     14.04300
   49     1     1      0.09031      34.47100      27.27200     15.32500
   50     1     1      0.09031      34.44900      28.16100     16.81200
   51     1     1      0.08547      32.51300      28.58000     14.48200
   52     1     1      0.08547      32.15400      27.73200     15.96700
   53     1     1      0.08525      31.30500      30.05600     16.09800
   54     1     1      0.08525      32.54200      29.77700     17.29300
   55     1     1      0.11028      32.80500      31.27700     14.65400
   56     1     1      0.12051      35.11200      31.48100     14.88400
   57     1     1      0.12182      34.89200      30.28900     17.64700
   58     1     1      0.08137      37.07700      32.20000     16.97500
   59     1     1      0.08137      37.09500      30.75400     17.94200
   60     1     1      0.08839      38.42500      30.21700     16.09400
   61     1     1      0.08839      37.43200      31.07100     14.95300
   62     1     1      0.09324      34.98200      33.24800     17.04800
   63     1     1      0.09324      34.27300      32.42300     18.42700
   64     1     1      0.09498      32.98600      33.18800     15.96700
   65     1     1      0.09498      32.24500      32.24300     17.23700
   66     1     1      0.08372      37.16400      26.61300     12.91000
   67     1     1      0.08372      35.64700      27.30600     13.37800
   68     1     1      0.08372      36.57500      26.36600     14.54800
   69     2     2     -0.10010       5.18500      32.34900      4.18500
   70     2     2     -0.11185       6.41500      31.86300      3.35100
   71     2     2     -0.18479       7.11600      30.59300      3.91600
   72     2     2     -0.17791       8.20900      30.02400      2.97600
   73     2     2     -0.11921       8.83600      31.12100      2.09900
   74     2     2     -0.19712      10.28500      30.93900      1.65900
   75     2     2     -0.19961      10.69400      32.35200      1.22200
   76     2     2     -0.08492       5.36300      32.35200      5.74600
   77     2     2     -0.11001       4.05600      32.78200      6.50700
   78     2     2     -0.16467       3.23500      31.56200      6.99100
   79     2     2     -0.17114       2.00500      31.98200      7.80700
   80     2     2     -0.16882       2.43300      32.75700      9.05700
   81     2     2     -0.11501       3.23600      34.02000      8.69700
   82     2     2     -0.11845       4.35500      33.74500      7.68100
   83     2     2     -0.13041       5.52200      33.26200      8.52800
   84     2     2     -0.17036       6.82900      33.24600      7.72200
   85     2     2     -0.16305       6.58600      33.20600      6.19600
   86     2     2     -0.17951       5.47200      34.16500      9.76500
   87     2     2     -0.19109       3.99400      34.58200      9.91700
   88     2     2     -0.24510       3.94400      31.55000      3.72900
   89     2     2     -0.11501       9.91000      33.32900      2.12700
   90     2     2     -0.11119       8.84400      32.46100      2.82500
   91     2     2     -0.08304       7.40300      33.01100      2.94700
   92     2     2     -0.17941       6.90900      33.79700      1.69700
   93     2     2     -0.18039       8.00500      34.18100      0.68700
   94     2     2     -0.16634       9.32200      34.54000      1.38200
   95     2     1      0.09260      10.59700      33.70800      2.88600
   96     2     1      0.09597       9.21800      32.28200      3.83600
   97     2     1      0.11005       7.45500      33.75200      3.74200
   98     2     1      0.08456       6.13700      33.25100      1.15600
   99     2     1      0.08456       6.41500      34.70500      2.04400
  100     2     1      0.08611       7.66300      35.01400      0.07200
  101     2     1      0.08611       8.17500      33.35200     -0.00000
  102     2     1      0.09168      10.04500      34.92800      0.66300
  103     2     1      0.09168       9.13900      35.34900      2.09100
  104     2     1      0.10560       6.02500      31.49900      2.40100
  105     2     1      0.09857       7.57900      30.82000      4.87500
  106     2     1      0.09857       6.38000      29.81600      4.12700
  107     2     1      0.09005       8.97100      29.52800      3.57800
  108     2     1      0.09005       7.78600      29.25300      2.33000
  109     2     1      0.11857       8.22800      31.23100      1.19800
  110     2     1      0.10030      10.39600      30.20400      0.86000
  111     2     1      0.10030      10.90100      30.61600      2.50000
  112     2     1      0.09703      10.41400      32.49600      0.17800
  113     2     1      0.09703      11.77200      32.50600      1.28500
  114     2     1      0.08629       4.98800      33.38000      3.88600
  115     2     1      0.09069       5.58800      31.33200      6.05500
  116     2     1      0.10029       3.42600      33.35600      5.82800
  117     2     1      0.09031       2.91200      30.95100      6.15200
  118     2     1      0.09031       3.86100      30.90900      7.60100
  119     2     1      0.08547       1.34000      32.59200      7.19500
  120     2     1      0.08547       1.43500      31.09900      8.09800
  121     2     1      0.08525       1.55700      33.02900      9.64600
  122     2     1      0.08525       3.03100      32.10100      9.69200
  123     2     1      0.11028       2.54700      34.76400      8.29300
  124     2     1      0.12051       4.63000      34.71300      7.25500
  125     2     1      0.12182       5.30700      32.24100      8.84800
  126     2     1      0.08137       7.44200      34.11700      7.95500
  127     2     1      0.08137       7.41900      32.37900      8.02500
  128     2     1      0.08839       7.50600      32.85300      5.73600
  129     2     1      0.08839       6.44900      34.22700      5.83600
  130     2     1      0.09324       6.08500      35.05600      9.61900
  131     2     1      0.09324       5.85000      33.65400     10.65200
  132     2     1      0.09498       3.92200      35.67000      9.93600
  133     2     1      0.09498       3.57100      34.22700     10.85800
  134     2     1      0.08372       3.83200      31.56400      2.64500
  135     2     1      0.08372       3.01600      31.96600      4.11900
  136     2     1      0.08372       4.00500      30.50700      4.03900
  137     3     2     -0.10010      11.57900      18.23200     43.33400
  138     3     2     -0.11185      12.16300      18.75400     44.68700
  139     3     2     -0.18479      12.37100      17.65300     45.76700
  140     3     2     -0.17791      13.12100      18.15900     47.02500
  141     3     2     -0.11921      12.89200      19.66200     47.26000
  142     3     2     -0.19712      12.93900      20.17300     48.69700
  143     3     2     -0.19961      12.24900      21.54000     48.60000
  144     3     2     -0.08492      10.39800      17.20200     43.43900
  145     3     2     -0.11001       9.92300      16.67300     42.03600
  146     3     2     -0.16467      10.56600      15.31100     41.67800
  147     3     2     -0.17114      10.03800      14.75600     40.34900
  148     3     2     -0.16882       8.52500      14.52800     40.42900
  149     3     2     -0.11501       7.76900      15.83100     40.75100
  150     3     2     -0.11845       8.38100      16.59800     41.93300
  151     3     2     -0.13041       7.76100      15.95100     43.16200
  152     3     2     -0.17036       8.00500      16.79600     44.42100
  153     3     2     -0.16305       9.20200      17.76100     44.26600
  154     3     2     -0.17951       6.30500      15.71100     42.75100
  155     3     2     -0.19109       6.32500      15.55300     41.21500
  156     3     2     -0.24510      12.74900      17.71000     42.47000
  157     3     2     -0.11501      11.18300      21.41000     47.48900
  158     3     2     -0.11119      11.51300      20.08700     46.76900
  159     3     2     -0.08304      11.46200      20.05000     45.22400
  160     3     2     -0.17941      12.00100      21.33700     44.53300
  161     3     2     -0.18039      12.19600      22.54800     45.46300
  162     3     2     -0.16634      11.11200      22.62100     46.54300
  163     3     1      0.09260      10.20800      21.30700     47.97000
  164     3     1      0.09597      10.79400      19.35400     47.14300
  165     3     1      0.11005      10.40100      20.02500     44.98100
  166     3     1      0.08456      12.94700      21.15500     44.02300
  167     3     1      0.08456      11.30600      21.61000     43.73900
  168     3     1      0.08611      12.20500      23.46600     44.87400
  169     3     1      0.08611      13.17500      22.48900     45.93900
  170     3     1      0.09168      11.19400      23.54800     47.11000
  171     3     1      0.09168      10.13400      22.64800     46.06000
  172     3     1      0.10560      13.18700      19.06700     44.48600
  173     3     1      0.09857      11.40800      17.25600     46.08400
  174     3     1      0.09857      12.90800      16.80300     45.34400
  175     3     1      0.09005      12.79500      17.57900     47.88900
  176     3     1      0.09005      14.19100      17.97500     46.92500
  177     3     1      0.11857      13.63800      20.21700     46.68800
  178     3     1      0.10030      13.95500      20.24100     49.08900
  179     3     1      0.10030      12.36900      19.51300     49.35400
  180     3     1      0.09703      12.99000      22.29300     48.32700
  181     3     1      0.09703      11.81700      21.85100     49.55300
  182     3     1      0.08629      11.19300      19.10200     42.79900
  183     3     1      0.09069      10.76100      16.33800     43.99600
  184     3     1      0.10029      10.21900      17.39000     41.27100
  185     3     1      0.09031      11.64900      15.39400     41.62200
  186     3     1      0.09031      10.37100      14.58600     42.46900
  187     3     1      0.08547      10.27300      15.44400     39.53500
  188     3     1      0.08547      10.54000      13.81700     40.11400
  189     3     1      0.08525       8.16000      14.10900     39.49100
  190     3     1      0.08525       8.32200      13.77800     41.19400
  191     3     1      0.11028       7.77400      16.46200     39.86100
  192     3     1      0.12051       8.00200      17.62000     41.86600
  193     3     1      0.12182       8.23400      14.97900     43.30700
  194     3     1      0.08137       7.11900      17.37600     44.68000
  195     3     1      0.08137       8.17800      16.12600     45.26500
  196     3     1      0.08839       9.51300      18.04700     45.26900
  197     3     1      0.08839       8.85200      18.68000     43.79300
  198     3     1      0.09324       5.68100      16.56500     43.01700
  199     3     1      0.09324       5.88500      14.83600     43.25000
  200     3     1      0.09498       5.64000      16.27200     40.76500
  201     3     1      0.09498       5.98200      14.56400     40.90900
  202     3     1      0.08372      13.55600      18.44000     42.40300
  203     3     1      0.08372      12.45100      17.51500     41.44100
  204     3     1      0.08372      13.17000      16.79300     42.88100
  205     4     2     -0.10010      25.58500      22.33300     31.54600
  206     4     2     -0.11185      24.15800      22.41000     30.91200
  207     4     2     -0.18479      24.08400      21.93000     29.43300
  208     4     2     -0.17791      22.63600      21.83800     28.88800
  209     4     2     -0.11921      21.69600      22.83100     29.59300
  210     4     2     -0.19712      20.50800      23.37000     28.80300
  211     4     2     -0.19961      20.08900      24.60600     29.60900
  212     4     2     -0.08492      26.77200      22.83400     30.64700
  213     4     2     -0.11001      28.17500      22.65200     31.33300
  214     4     2     -0.16467      28.88500      21.35500     30.87400
  215     4     2     -0.17114      30.28900      21.22200     31.47900
  216     4     2     -0.16882      31.17300      22.39300     31.04000
  217     4     2     -0.11501      30.58000      23.74700     31.47300
  218     4     2     -0.11845      29.09000      23.88300     31.12500
  219     4     2     -0.13041      29.08200      24.35700     29.68000
  220     4     2     -0.17036      27.69100      24.85700     29.26300
  221     4     2     -0.16305      26.56500      24.30100     30.16300
  222     4     2     -0.17951      30.23500      25.36500     29.62200
  223     4     2     -0.19109      31.23100      24.92300     30.71600
  224     4     2     -0.24510      25.80400      20.89900     32.07700
  225     4     2     -0.11501      21.38500      25.18400     30.22100
  226     4     2     -0.11119      22.44800      24.08600     30.01700
  227     4     2     -0.08304      23.41300      23.76200     31.18200
  228     4     2     -0.17941      22.75200      23.79500     32.59100
  229     4     2     -0.18039      21.35700      24.44500     32.64600
  230     4     2     -0.16634      21.24100      25.63200     31.68600
  231     4     1      0.09260      21.67300      26.05700     29.63300
  232     4     1      0.09597      23.05200      24.40800     29.16600
  233     4     1      0.11005      24.12700      24.58400     31.18800
  234     4     1      0.08456      22.67000      22.79800     33.02200
  235     4     1      0.08456      23.41900      24.33500     33.26400
  236     4     1      0.08611      21.13900      24.76200     33.66700
  237     4     1      0.08611      20.59900      23.70300     32.39500
  238     4     1      0.09168      20.29300      26.15300     31.82900
  239     4     1      0.09168      22.02200      26.35600     31.92300
  240     4     1      0.10560      23.55000      21.66300     31.41900
  241     4     1      0.09857      24.64300      22.61100     28.79300
  242     4     1      0.09857      24.57400      20.96200     29.32200
  243     4     1      0.09005      22.65000      22.01700     27.81200
  244     4     1      0.09005      22.24800      20.82700     29.02000
  245     4     1      0.11857      21.30500      22.35300     30.49300
  246     4     1      0.10030      19.70200      22.64100     28.70000
  247     4     1      0.10030      20.82100      23.66700     27.80000
  248     4     1      0.09703      19.40100      24.29900     30.39800
  249     4     1      0.09703      19.56000      25.33700     28.99500
  250     4     1      0.08629      25.57100      22.96900     32.43400
  251     4     1      0.09069      26.78100      22.22600     29.74300
  252     4     1      0.10029      28.03400      22.58900     32.41200
  253     4     1      0.09031      28.30100      20.47600     31.13800
  254     4     1      0.09031      28.96200      21.33600     29.78700
  255     4     1      0.08547      30.22600      21.18400     32.56800
  256     4     1      0.08547      30.74000      20.28000     31.16300
  257     4     1      0.08525      32.17600      22.27900     31.45100
  258     4     1      0.08525      31.28500      22.36300     29.95500
  259     4     1      0.11028      30.71800      23.85600     32.55000
  260     4     1      0.12051      28.70100      24.69500     31.74500
  261     4     1      0.12182      29.34500      23.51000     29.04500
  262     4     1      0.08137      27.64700      25.94600     29.28000
  263     4     1      0.08137      27.51100      24.57000     28.22500
  264     4     1      0.08839      25.63400      24.40800     29.61200
  265     4     1      0.08839      26.46600      24.94400     31.03800
  266     4     1      0.09324      29.88100      26.37300     29.84300
  267     4     1      0.09324      30.69500      25.39400     28.63300
  268     4     1      0.09498      31.41500      25.75400     31.39900
  269     4     1      0.09498      32.19800      24.64900     30.29200
  270     4     1      0.08372      24.97500      20.57200     32.70400
  271     4     1      0.08372      26.68900      20.82000     32.70600
  272     4     1      0.08372      25.90200      20.18300     31.26100
  273     5     2     -0.10010      27.56900      39.56000     27.50300
  274     5     2     -0.11185      28.38000      40.81600     27.96200
  275     5     2     -0.18479      29.67600      41.08100     27.14200
  276     5     2     -0.17791      30.35800      42.42900     27.49100
  277     5     2     -0.11921      30.06800      42.85900     28.93900
  278     5     2     -0.19712      31.11900      43.70100     29.65600
  279     5     2     -0.19961      30.72900      43.55500     31.13200
  280     5     2     -0.08492      28.40800      38.27000     27.18800
  281     5     2     -0.11001      27.52400      37.08000     26.66300
  282     5     2     -0.16467      27.52800      36.99000     25.11800
  283     5     2     -0.17114      26.73400      35.77900     24.61000
  284     5     2     -0.16882      27.35000      34.47800     25.13400
  285     5     2     -0.11501      27.37100      34.43900     26.67400
  286     5     2     -0.11845      27.93200      35.72700     27.29500
  287     5     2     -0.13041      29.43900      35.52700     27.28200
  288     5     2     -0.17036      30.14900      36.57000     28.15700
  289     5     2     -0.16305      29.28600      37.83000     28.39900
  290     5     2     -0.17951      29.61200      34.05400     27.66800
  291     5     2     -0.19109      28.32200      33.34600     27.20300
  292     5     2     -0.24510      26.65400      39.97500     26.33000
  293     5     2     -0.11501      30.13100      42.13900     31.28600
  294     5     2     -0.11119      29.89800      41.64400     29.84400
  295     5     2     -0.08304      28.57500      40.91400     29.51500
  296     5     2     -0.17941      27.32300      41.50300     30.22700
  297     5     2     -0.18039      27.62100      42.48800     31.37200
  298     5     2     -0.16634      28.86800      42.08400     32.16300
  299     5     1      0.09260      30.88700      41.50300     31.75100
  300     5     1      0.09597      30.72000      40.95800     29.62700
  301     5     1      0.11005      28.69500      39.91800     29.93600
  302     5     1      0.08456      26.65700      42.00400     29.52400
  303     5     1      0.08456      26.73600      40.67200     30.62000
  304     5     1      0.08611      26.75800      42.55400     32.03500
  305     5     1      0.08611      27.76200      43.48900     30.96400
  306     5     1      0.09168      28.99100      42.71900     33.04100
  307     5     1      0.09168      28.73300      41.06900     32.54200
  308     5     1      0.10560      27.77500      41.68600     27.71300
  309     5     1      0.09857      30.39500      40.28300     27.31500
  310     5     1      0.09857      29.46200      41.05100     26.07300
  311     5     1      0.09005      31.43200      42.33600     27.32300
  312     5     1      0.09005      30.01400      43.21100     26.81300
  313     5     1      0.11857      29.13200      43.42000     28.95000
  314     5     1      0.10030      31.12700      44.74000     29.32300
  315     5     1      0.10030      32.11600      43.28700     29.49000
  316     5     1      0.09703      29.98200      44.31100     31.37900
  317     5     1      0.09703      31.57800      43.72000     31.79900
  318     5     1      0.08629      26.89100      39.30500     28.32000
  319     5     1      0.09069      29.11100      38.51700     26.39300
  320     5     1      0.10029      26.49400      37.23900     26.98300
  321     5     1      0.09031      27.11800      37.89400     24.67300
  322     5     1      0.09031      28.55200      36.92400     24.74900
  323     5     1      0.08547      25.69200      35.85500     24.92200
  324     5     1      0.08547      26.72900      35.77100     23.51900
  325     5     1      0.08525      26.79800      33.62100     24.74800
  326     5     1      0.08525      28.36400      34.38500     24.74300
  327     5     1      0.11028      26.35300      34.27200     27.02900
  328     5     1      0.12051      27.60400      35.73500     28.33700
  329     5     1      0.12182      29.78700      35.64900     26.25600
  330     5     1      0.08137      30.42600      36.14600     29.12300
  331     5     1      0.08137      31.08700      36.85200     27.67700
  332     5     1      0.08839      29.96100      38.62400     28.70800
  333     5     1      0.08839      28.63300      37.64800     29.25400
  334     5     1      0.09324      29.71400      33.94600     28.74900
  335     5     1      0.09324      30.50600      33.62200     27.21500
  336     5     1      0.09498      27.86600      32.82700     28.04800
  337     5     1      0.09498      28.53000      32.58600     26.44800
  338     5     1      0.08372      26.07500      40.86700     26.56800
  339     5     1      0.08372      25.91800      39.21100     26.08600
  340     5     1      0.08372      27.23100      40.18900     25.43000
  341     6     2     -0.10010      11.69800      32.79700      8.91800
  342     6     2     -0.11185      11.72400      31.69000      7.81500
  343     6     2     -0.18479      10.40000      31.55300      7.00800
  344     6     2     -0.17791      10.51200      30.58500      5.80300
  345     6     2     -0.11921      11.57400      29.49800      6.03900
  346     6     2     -0.19712      11.37200      28.14500      5.36400
  347     6     2     -0.19961      12.31400      27.22300      6.14800
  348     6     2     -0.08492      10.39800      32.87000      9.79700
  349     6     2     -0.11001      10.42600      34.05700     10.82900
  350     6     2     -0.16467       9.67500      35.30400     10.30300
  351     6     2     -0.17114       9.63100      36.43100     11.34400
  352     6     2     -0.16882       8.89400      35.96500     12.60300
  353     6     2     -0.11501       9.57300      34.73700     13.23900
  354     6     2     -0.11845       9.88700      33.63500     12.21700
  355     6     2     -0.13041       8.59300      32.84400     12.10700
  356     6     2     -0.17036       8.81300      31.51100     11.37600
  357     6     2     -0.16305      10.08800      31.51600     10.50200
  358     6     2     -0.17951       8.08500      32.77600     13.55100
  359     6     2     -0.19109       8.64700      34.03300     14.25000
  360     6     2     -0.24510      12.04800      34.14900      8.25800
  361     6     2     -0.11501      12.34100      27.76100      7.59600
  362     6     2     -0.11119      11.67900      29.15100      7.52000
  363     6     2     -0.08304      12.32100      30.32300      8.29900
  364     6     2     -0.17941      13.87700      30.32500      8.28500
  365     6     2     -0.18039      14.53100      29.02200      7.79200
  366     6     2     -0.16634      13.74300      27.78400      8.23000
  367     6     1      0.09260      11.71100      27.11200      8.20700
  368     6     1      0.09597      10.66200      29.01900      7.89600
  369     6     1      0.11005      12.04900      30.14800      9.33800
  370     6     1      0.08456      14.27500      31.14300      7.68500
  371     6     1      0.08456      14.22300      30.53200      9.29900
  372     6     1      0.08611      15.55800      28.96400      8.15700
  373     6     1      0.08611      14.60200      29.03800      6.70400
  374     6     1      0.09168      14.28600      26.87200      7.98000
  375     6     1      0.09168      13.65000      27.79100      9.31700
  376     6     1      0.10560      12.42000      32.02900      7.04800
  377     6     1      0.09857       9.60400      31.19400      7.65800
  378     6     1      0.09857      10.06700      32.53100      6.65600
  379     6     1      0.09005       9.53500      30.13600      5.61600
  380     6     1      0.09005      10.76700      31.13800      4.89800
  381     6     1      0.11857      12.54200      29.88700      5.71600
  382     6     1      0.10030      11.59700      28.16800      4.29600
  383     6     1      0.10030      10.33900      27.81200      5.48200
  384     6     1      0.09703      13.31000      27.27400      5.70600
  385     6     1      0.09703      12.00000      26.17900      6.10000
  386     6     1      0.08629      12.52700      32.58600      9.59700
  387     6     1      0.09069       9.55700      33.05200      9.12800
  388     6     1      0.10029      11.46200      34.34400     11.00700
  389     6     1      0.09031      10.13500      35.68200      9.39200
  390     6     1      0.09031       8.65600      35.03700     10.02300
  391     6     1      0.08547      10.64300      36.75000     11.59500
  392     6     1      0.08547       9.12700      37.30300     10.92400
  393     6     1      0.08525       8.84200      36.77800     13.32800
  394     6     1      0.08525       7.86200      35.72800     12.34100
  395     6     1      0.11028      10.49600      35.06500     13.72200
  396     6     1      0.12051      10.63600      32.98800     12.68100
  397     6     1      0.12182       7.88400      33.43700     11.52800
  398     6     1      0.08137       8.87800      30.68400     12.08400
  399     6     1      0.08137       7.94000      31.30200     10.75600
  400     6     1      0.08839       9.98100      30.70900      9.78000
  401     6     1      0.08839      10.94100      31.24400     11.12500
  402     6     1      0.09324       8.46300      31.88400     14.05300
  403     6     1      0.09324       6.99500      32.73300     13.59200
  404     6     1      0.09498       9.21200      33.73500     15.13500
  405     6     1      0.09498       7.84800      34.68900     14.59800