LAMMPS data file of the system for full atom style

    4980 atoms
    5229 bonds
    9960 angles
   15438 dihedrals
     996 impropers

    4 atom types
    5 bond types
    8 angle types
    7 dihedral types
    1 improper types

    0.000000    50.000000 xlo xhi
    0.000000    50.000000 ylo yhi
    0.000000    50.000000 zlo zhi

 Masses 

    1       1.0080
    2       1.0080
    3      12.0110
    4      12.0110

 Pair Coeffs 

    1       0.0300       2.4200
    2       0.0300       2.5000
    3       0.0660       3.5000
    4       0.0700       3.5500

 Bond Coeffs 

    1     268.0000        1.5290
    2     317.0000        1.5100
    3     340.0000        1.0900
    4     367.0000        1.0800
    5     469.0000        1.4000

 Angle Coeffs 

    1      33.0000      107.8000
    2      35.0000      109.5000
    3      35.0000      120.0000
    4      37.5000      110.7000
    5      58.3500      112.7000
    6      63.0000      114.0000
    7      63.0000      120.0000
    8      70.0000      120.0000

 Dihedral Coeffs 

    1      -1.6970       -0.4560       0.5850        0.0000
    2      -0.2500        0.0000       0.0000        0.0000
    3       0.0000        0.0000       0.0000        0.0000
    4       0.0000        0.0000       0.3000        0.0000
    5       0.0000        0.0000       0.4620        0.0000
    6       0.0000        7.2500       0.0000        0.0000
    7       0.8500       -0.2000       0.2000        0.0000

 Improper Coeffs 

    1       2.5000     -1     2

 Atoms 

    1     1     4     -0.11370      13.71700      11.20300     33.07800
    2     1     4     -0.10165      13.57100      11.99500     31.91500
    3     1     4     -0.08749      12.97500      10.01300     33.17800
    4     1     3     -0.12114      14.35700      13.28200     31.77600
    5     1     3     -0.17557      15.75200      13.07700     31.16700
    6     1     3     -0.17109      16.52800      14.37600     30.88100
    7     1     3     -0.16302      16.89300      15.19600     32.13300
    8     1     3     -0.17736      15.90200      16.33700     32.43400
    9     1     3     -0.19065      16.16600      17.04600     33.77200
   10     1     3     -0.19179      17.49100      17.82400     33.81000
   11     1     3     -0.19724      17.66600      18.61100     35.11900
   12     1     3     -0.18180      19.02800      19.31600     35.23500
   13     1     3     -0.24743      19.22300      20.44700     34.21700
   14     1     3     -0.08319      12.98300       9.03000     34.32400
   15     1     3     -0.07331      11.84600       8.01800     33.95200
   16     1     3     -0.13598      11.45900       8.30300     32.47800
   17     1     4     -0.09797      12.12300       9.61100     32.15800
   18     1     4     -0.11246      11.96600      10.38000     30.99200
   19     1     4     -0.13587      12.70000      11.58000     30.87700
   20     1     4     -0.09117      10.75600       8.32200     34.95100
   21     1     4     -0.08076      11.17600       9.23300     35.91300
   22     1     4     -0.11762      10.31800       9.65900     36.94100
   23     1     4     -0.13488       9.00700       9.13400     36.97900
   24     1     4     -0.13488       8.58000       8.20300     36.00300
   25     1     3     -0.13709      12.60300       9.64600     35.69500
   26     1     4     -0.11762       9.45600       7.78700     34.97700
   27     1     1      0.13628       9.13500       7.07600     34.22900
   28     1     1      0.13628      10.65200      10.36900     37.68400
   29     1     1      0.13534       8.32800       9.44700     37.75800
   30     1     1      0.13534       7.57500       7.80700     36.04300
   31     1     2      0.10891      13.21600       9.23200     36.49500
   32     1     2      0.10891      12.70200      10.73200     35.70900
   33     1     2      0.12882      13.95900       8.54600     34.35500
   34     1     2      0.13078      12.16500       6.98500     34.09400
   35     1     2      0.11317      10.38100       8.36600     32.33100
   36     1     2      0.11317      11.85400       7.53500     31.81200
   37     1     1      0.14139      11.30300      10.06000     30.20100
   38     1     1      0.13108      12.59500      12.18200     29.98700
   39     1     1      0.14295      14.38400      11.50100     33.87400
   40     1     2      0.10954      13.78200      13.98300     31.16900
   41     1     2      0.10954      14.44300      13.73500     32.76400
   42     1     2      0.08809      15.64300      12.52700     30.23000
   43     1     2      0.08809      16.34000      12.42900     31.81800
   44     1     2      0.07554      17.45500      14.09400     30.38100
   45     1     2      0.07554      15.99000      14.99300     30.15900
   46     1     2      0.08497      16.99600      14.53800     32.99600
   47     1     2      0.08497      17.88100      15.63200     31.97600
   48     1     2      0.09364      14.88400      15.94900     32.45000
   49     1     2      0.09364      15.92100      17.06600     31.62100
   50     1     2      0.09088      16.13800      16.31800     34.58500
   51     1     2      0.09088      15.34400      17.73700     33.96300
   52     1     2      0.10234      18.32900      17.13700     33.69000
   53     1     2      0.10234      17.52900      18.50800     32.96000
   54     1     2      0.09372      16.86300      19.34200     35.22600
   55     1     2      0.09372      17.55900      17.92400     35.96100
   56     1     2      0.09492      19.83500      18.58700     35.13900
   57     1     2      0.09492      19.12100      19.73100     36.24000
   58     1     2      0.08101      18.42600      21.18700     34.28700
   59     1     2      0.08101      19.24500      20.07100     33.19400
   60     1     2      0.08100      20.16700      20.96500     34.39000
   61     2     4     -0.11370      40.78900      42.33900     35.31200
   62     2     4     -0.10165      41.64200      43.35600     34.82200
   63     2     4     -0.08749      41.35900      41.26700     36.02000
   64     2     3     -0.12114      41.05900      44.52500     34.05700
   65     2     3     -0.17557      40.60600      45.67900     34.96500
   66     2     3     -0.17109      40.13600      46.94000     34.21800
   67     2     3     -0.16302      38.86800      46.74900     33.36500
   68     2     3     -0.17736      39.16100      46.47400     31.87700
   69     2     3     -0.19065      37.91000      46.11400     31.06000
   70     2     3     -0.19179      36.90300      47.26800     30.92700
   71     2     3     -0.19724      35.72300      46.90700     30.01000
   72     2     3     -0.18180      34.64300      47.99900     29.93900
   73     2     3     -0.24743      35.11900      49.29100     29.26300
   74     2     3     -0.08319      40.63400      40.08700     36.62200
   75     2     3     -0.07331      41.79300      39.15400     37.11600
   76     2     3     -0.13598      43.10000      39.98500     37.04100
   77     2     4     -0.09797      42.72800      41.20400     36.24700
   78     2     4     -0.11246      43.59300      42.20600     35.77500
   79     2     4     -0.13587      43.03800      43.28700     35.05700
   80     2     4     -0.09117      41.74300      37.98700     36.16000
   81     2     4     -0.08076      40.64000      38.05500     35.31800
   82     2     4     -0.11762      40.39900      37.06800     34.34600
   83     2     4     -0.13488      41.30900      35.99300     34.24500
   84     2     4     -0.13488      42.43000      35.91900     35.10600
   85     2     3     -0.13709      39.79900      39.26600     35.60700
   86     2     4     -0.11762      42.65500      36.92000     36.07600
   87     2     1      0.13628      43.51000      36.86900     36.73600
   88     2     1      0.13628      39.54100      37.13100     33.69400
   89     2     1      0.13534      41.14700      35.22300     33.50500
   90     2     1      0.13534      43.11900      35.09100     35.02000
   91     2     2      0.10891      38.85500      38.94300     36.04500
   92     2     2      0.10891      39.58600      39.82100     34.69300
   93     2     2      0.12882      40.02400      40.44600     37.45100
   94     2     2      0.13078      41.60700      38.78200     38.12400
   95     2     2      0.11317      43.91600      39.44300     36.56500
   96     2     2      0.11317      43.42500      40.29700     38.03400
   97     2     1      0.14139      44.65700      42.15200     35.95700
   98     2     1      0.13108      43.68700      44.06700     34.68900
   99     2     1      0.14295      39.72200      42.38200     35.14800
  100     2     2      0.10954      41.79900      44.88200     33.33900
  101     2     2      0.10954      40.21700      44.15900     33.46900
  102     2     2      0.08809      41.43900      45.95300     35.61600
  103     2     2      0.08809      39.81800      45.32700     35.63100
  104     2     2      0.07554      39.92400      47.70000     34.97100
  105     2     2      0.07554      40.94700      47.35400     33.61500
  106     2     2      0.08497      38.24700      45.95800     33.78800
  107     2     2      0.08497      38.27200      47.66000     33.43500
  108     2     2      0.09364      39.87400      45.65600     31.78500
  109     2     2      0.09364      39.65400      47.34100     31.43300
  110     2     2      0.09088      37.42300      45.24200     31.49900
  111     2     2      0.09088      38.22800      45.80600     30.06200
  112     2     2      0.10234      36.52100      47.54300     31.91000
  113     2     2      0.10234      37.41600      48.14900     30.53800
  114     2     2      0.09372      36.08500      46.68100     29.00600
  115     2     2      0.09372      35.26100      45.98700     30.37400
  116     2     2      0.09492      34.27000      48.22100     30.94100
  117     2     2      0.09492      33.78800      47.60900     29.38300
  118     2     2      0.08101      35.50400      49.09800     28.26100
  119     2     2      0.08101      35.90600      49.78200     29.83600
  120     2     2      0.08100      34.29800      50.00300     29.16700
  121     3     4     -0.11370      12.74900      40.51800      6.47000
  122     3     4     -0.10165      13.40900      39.86400      5.40300
  123     3     4     -0.08749      11.42300      40.15300      6.76400
  124     3     3     -0.12114      14.83800      40.23400      5.06200
  125     3     3     -0.17557      15.87800      39.44400      5.87000
  126     3     3     -0.17109      17.34000      39.69100      5.45400
  127     3     3     -0.16302      17.84200      41.12800      5.69000
  128     3     3     -0.17736      17.76400      42.02200      4.43800
  129     3     3     -0.19065      18.10200      43.49600      4.71200
  130     3     3     -0.19179      19.56500      43.73200      5.11900
  131     3     3     -0.19724      19.89300      45.22500      5.27300
  132     3     3     -0.18180      21.31900      45.49300      5.78200
  133     3     3     -0.24743      22.41400      45.08200      4.78900
  134     3     3     -0.08319      10.54300      40.72200      7.85100
  135     3     3     -0.07331       9.14700      40.06300      7.57900
  136     3     3     -0.13598       9.37900      38.93200      6.54500
  137     3     4     -0.09797      10.77200      39.16600      6.03600
  138     3     4     -0.11246      11.41200      38.49900      4.97600
  139     3     4     -0.13587      12.74100      38.85700      4.66400
  140     3     4     -0.09117       8.30600      41.20800      7.07000
  141     3     4     -0.08076       8.97200      42.42400      7.16800
  142     3     4     -0.11762       8.37300      43.62300      6.74800
  143     3     4     -0.13488       7.06400      43.56800      6.22100
  144     3     4     -0.13488       6.38100      42.33200      6.12500
  145     3     3     -0.13709      10.33900      42.25600      7.76800
  146     3     4     -0.11762       7.00000      41.13700      6.55300
  147     3     1      0.13628       6.48400      40.19000      6.48200
  148     3     1      0.13628       8.89900      44.56300      6.82500
  149     3     1      0.13534       6.58100      44.47600      5.89000
  150     3     1      0.13534       5.37900      42.30200      5.72200
  151     3     2      0.10891      10.34600      42.70700      8.76000
  152     3     2      0.10891      11.09700      42.74800      7.15800
  153     3     2      0.12882      10.95000      40.41900      8.81600
  154     3     2      0.13078       8.69500      39.68600      8.49800
  155     3     2      0.11317       8.65700      38.95300      5.73000
  156     3     2      0.11317       9.33700      37.95100      7.01900
  157     3     1      0.14139      10.90100      37.73000      4.41500
  158     3     1      0.13108      13.24800      38.35300      3.85500
  159     3     1      0.14295      13.24700      41.28200      7.04800
  160     3     2      0.10954      14.99600      40.07900      3.99300
  161     3     2      0.10954      14.96100      41.30300      5.23500
  162     3     2      0.08809      15.66400      38.37900      5.76200
  163     3     2      0.08809      15.75200      39.66100      6.93200
  164     3     2      0.07554      17.96000      39.01600      6.04500
  165     3     2      0.07554      17.49900      39.39200      4.41700
  166     3     2      0.08497      17.30300      41.58200      6.52200
  167     3     2      0.08497      18.88400      41.07400      6.00900
  168     3     2      0.09364      16.76300      41.97600      4.01200
  169     3     2      0.09364      18.42700      41.63000      3.66400
  170     3     2      0.09088      17.43300      43.89000      5.47900
  171     3     2      0.09088      17.88900      44.07100      3.80900
  172     3     2      0.10234      19.77700      43.22000      6.05800
  173     3     2      0.10234      20.22200      43.28500      4.37000
  174     3     2      0.09372      19.73800      45.74200      4.32400
  175     3     2      0.09372      19.18600      45.67200      5.97400
  176     3     2      0.09492      21.47600      44.98700      6.73700
  177     3     2      0.09492      21.42100      46.55900      5.99200
  178     3     2      0.08101      22.27800      45.56800      3.82300
  179     3     2      0.08101      22.42700      44.00400      4.62400
  180     3     2      0.08100      23.40000      45.36200      5.16200
  181     4     4     -0.11370      23.54700      11.93800     40.72900
  182     4     4     -0.10165      22.94100      12.48500     39.57300
  183     4     4     -0.08749      24.92700      12.12600     40.91700
  184     4     3     -0.12114      21.45600      12.30100     39.34100
  185     4     3     -0.17557      20.60000      13.38800     40.00800
  186     4     3     -0.17109      19.09700      13.31500     39.68200
  187     4     3     -0.16302      18.38600      12.05100     40.19900
  188     4     3     -0.17736      18.25300      10.94100     39.13800
  189     4     3     -0.19065      17.70100       9.61900     39.69600
  190     4     3     -0.19179      16.24300       9.71000     40.17400
  191     4     3     -0.19724      15.69100       8.34500     40.61900
  192     4     3     -0.18180      14.27000       8.41700     41.20300
  193     4     3     -0.24743      13.20200       8.81500     40.17500
  194     4     3     -0.08319      25.76300      11.62900     42.07200
  195     4     3     -0.07331      27.22900      11.98400     41.64700
  196     4     3     -0.13598      27.12400      12.92800     40.42200
  197     4     4     -0.09797      25.68600      12.84000     39.99900
  198     4     4     -0.11246      25.10400      13.39700     38.84600
  199     4     4     -0.13587      23.72000      13.21300     38.64000
  200     4     4     -0.09117      27.84900      10.64100     41.34600
  201     4     4     -0.08076      27.00400       9.59300     41.68900
  202     4     4     -0.11762      27.38200       8.25400     41.49100
  203     4     4     -0.13488      28.65300       7.99200     40.93300
  204     4     4     -0.13488      29.51700       9.05900     40.58800
  205     4     3     -0.13709      25.71600      10.09300     42.27800
  206     4     4     -0.11762      29.12000      10.39800     40.79400
  207     4     1      0.13628      29.77500      11.21600     40.53200
  208     4     1      0.13628      26.71800       7.44500     41.75900
  209     4     1      0.13534      28.96600       6.97200     40.77100
  210     4     1      0.13534      30.48700       8.84700     40.16300
  211     4     2      0.10891      25.69200       9.84000     43.33800
  212     4     2      0.10891      24.85800       9.63000     41.79100
  213     4     2      0.12882      25.46200      12.16700     42.97000
  214     4     2      0.13078      27.78500      12.44400     42.46600
  215     4     2      0.11317      27.78900      12.63800     39.60900
  216     4     2      0.11317      27.34700      13.95900     40.69900
  217     4     1      0.14139      25.70000      13.95300     38.13800
  218     4     1      0.13108      23.25600      13.63700     37.76100
  219     4     1      0.14295      22.96500      11.38800     41.45300
  220     4     2      0.10954      21.26600      12.28100     38.26700
  221     4     2      0.10954      21.17400      11.31800     39.71900
  222     4     2      0.08809      20.97400      14.36400     39.69400
  223     4     2      0.08809      20.74600      13.35300     41.08800
  224     4     2      0.07554      18.62400      14.18200     40.14600
  225     4     2      0.07554      18.93100      13.44000     38.61000
  226     4     2      0.08497      18.89000      11.67400     41.08900
  227     4     2      0.08497      17.38400      12.33400     40.52600
  228     4     2      0.09364      19.22400      10.74000     38.68800
  229     4     2      0.09364      17.62000      11.28800     38.31900
  230     4     2      0.09088      18.33900       9.26800     40.50900
  231     4     2      0.09088      17.77000       8.86100     38.91500
  232     4     2      0.10234      16.16700      10.41300     41.00400
  233     4     2      0.10234      15.62500      10.11300     39.37000
  234     4     2      0.09372      15.71000       7.64500     39.78200
  235     4     2      0.09372      16.35500       7.92400     41.37500
  236     4     2      0.09492      14.24800       9.10900     42.04700
  237     4     2      0.09492      14.01200       7.44000     41.61400
  238     4     2      0.08101      13.20700       8.14300     39.31700
  239     4     2      0.08101      13.35200       9.83000     39.80800
  240     4     2      0.08100      12.20600       8.77600     40.61700
  241     5     4     -0.11370      20.06900       9.47900     20.89700
  242     5     4     -0.10165      20.27000       8.42300     21.81700
  243     5     4     -0.08749      19.41900      10.64300     21.34200
  244     5     3     -0.12114      20.96800       7.15500     21.36800
  245     5     3     -0.17557      22.49700       7.23000     21.48900
  246     5     3     -0.17109      23.23300       5.91500     21.17400
  247     5     3     -0.16302      23.09700       5.43300     19.71800
  248     5     3     -0.17736      21.98700       4.38400     19.51600
  249     5     3     -0.19065      21.73500       4.03000     18.04200
  250     5     3     -0.19179      22.91200       3.30800     17.36700
  251     5     3     -0.19724      22.58100       2.87000     15.93100
  252     5     3     -0.18180      23.77100       2.24000     15.19000
  253     5     3     -0.24743      24.22200       0.89700     15.78000
  254     5     3     -0.08319      19.10600      11.87700     20.53100
  255     5     3     -0.07331      18.23300      12.74600     21.50000
  256     5     3     -0.13598      18.34900      12.10100     22.90500
  257     5     4     -0.09797      18.99100      10.76700     22.65800
  258     5     4     -0.11246      19.18600       9.73300     23.59000
  259     5     4     -0.13587      19.83200       8.55500     23.15700
  260     5     4     -0.09117      16.85200      12.67600     20.89600
  261     5     4     -0.08076      16.85800      12.03700     19.66200
  262     5     4     -0.11762      15.67600      11.86100     18.92300
  263     5     4     -0.13488      14.46900      12.35500     19.46400
  264     5     4     -0.13488      14.46100      13.01100     20.71800
  265     5     3     -0.13709      18.24400      11.60900     19.27000
  266     5     4     -0.11762      15.65900      13.17800     21.44600
  267     5     1      0.13628      15.65900      13.67800     22.40500
  268     5     1      0.13628      15.69000      11.36100     17.96500
  269     5     1      0.13534      13.54600      12.23100     18.91600
  270     5     1      0.13534      13.53100      13.38500     21.12200
  271     5     2      0.10891      18.57700      12.21700     18.43000
  272     5     2      0.10891      18.25800      10.56200     18.96700
  273     5     2      0.12882      20.04400      12.37100     20.28100
  274     5     2      0.13078      18.55500      13.78800     21.50500
  275     5     2      0.11317      17.38200      11.98500     23.39500
  276     5     2      0.11317      18.99700      12.68900     23.55600
  277     5     1      0.14139      18.85300       9.83700     24.61200
  278     5     1      0.13108      19.99300       7.75100     23.86100
  279     5     1      0.14295      20.40400       9.39600     19.87400
  280     5     2      0.10954      20.58600       6.31700     21.95200
  281     5     2      0.10954      20.68300       6.96100     20.33400
  282     5     2      0.08809      22.74900       7.53100     22.50800
  283     5     2      0.08809      22.87300       8.02800     20.84800
  284     5     2      0.07554      24.29200       6.08200     21.37600
  285     5     2      0.07554      22.93100       5.13000     21.87000
  286     5     2      0.08497      22.94700       6.28500     19.05300
  287     5     2      0.08497      24.04700       4.99000     19.41600
  288     5     2      0.09364      21.05300       4.74500     19.94300
  289     5     2      0.09364      22.23100       3.47800     20.07600
  290     5     2      0.09088      21.48200       4.93400     17.48500
  291     5     2      0.09088      20.85200       3.39100     17.98800
  292     5     2      0.10234      23.78700       3.96000     17.35000
  293     5     2      0.10234      23.18900       2.43700     17.96400
  294     5     2      0.09372      21.74100       2.17300     15.93800
  295     5     2      0.09372      22.24200       3.74000     15.36600
  296     5     2      0.09492      24.61100       2.93700     15.17200
  297     5     2      0.09492      23.49100       2.08600     14.14700
  298     5     2      0.08101      23.40000       0.18300     15.81700
  299     5     2      0.08101      24.61400       1.01100     16.79100
  300     5     2      0.08100      25.01400       0.45500     15.17500
  301     6     4     -0.11370      34.84600      42.61600     36.40700
  302     6     4     -0.10165      33.80700      43.37700     36.99100
  303     6     4     -0.08749      35.36100      43.02300     35.16400
  304     6     3     -0.12114      33.23200      42.96500     38.33100
  305     6     3     -0.17557      34.00100      43.54700     39.52500
  306     6     3     -0.17109      33.36700      43.26500     40.90000
  307     6     3     -0.16302      33.32700      41.77800     41.29700
  308     6     3     -0.17736      31.98100      41.09400     40.99200
  309     6     3     -0.19065      31.99400      39.57500     41.22800
  310     6     3     -0.19179      32.16800      39.17800     42.70300
  311     6     3     -0.19724      32.06300      37.65900     42.91300
  312     6     3     -0.18180      32.33800      37.21800     44.36000
  313     6     3     -0.24743      31.27900      37.69900     45.36100
  314     6     3     -0.08319      36.46100      42.35700     34.37300
  315     6     3     -0.07331      36.47200      43.14600     33.01800
  316     6     3     -0.13598      35.58800      44.40300     33.22500
  317     6     4     -0.09797      34.87300      44.15300     34.52100
  318     6     4     -0.11246      33.84500      44.92800     35.08600
  319     6     4     -0.13587      33.31300      44.52900     36.33100
  320     6     4     -0.09117      35.91900      42.15300     32.02400
  321     6     4     -0.08076      35.75300      40.89400     32.58700
  322     6     4     -0.11762      35.24900      39.81700     31.83800
  323     6     4     -0.13488      34.91100      40.04400     30.48600
  324     6     4     -0.13488      35.08400      41.32500     29.90900
  325     6     3     -0.13709      36.18800      40.87200     34.02500
  326     6     4     -0.11762      35.59300      42.39400     30.67800
  327     6     1      0.13628      35.72600      43.37400     30.24300
  328     6     1      0.13628      35.12100      38.84200     32.28500
  329     6     1      0.13534      34.52000      39.23300     29.88900
  330     6     1      0.13534      34.82400      41.48600     28.87300
  331     6     2      0.10891      37.09500      40.27500     34.11100
  332     6     2      0.10891      35.42000      40.42700     34.65900
  333     6     2      0.12882      37.39800      42.48000     34.91800
  334     6     2      0.13078      37.48600      43.40900     32.71400
  335     6     2      0.11317      34.88000      44.55700     32.41100
  336     6     2      0.11317      36.19900      45.30000     33.32700
  337     6     1      0.14139      33.47100      45.80700     34.58200
  338     6     1      0.13108      32.52500      45.11500     36.78200
  339     6     1      0.14295      35.23900      41.74000     36.90200
  340     6     2      0.10954      32.18500      43.27000     38.37400
  341     6     2      0.10954      33.23300      41.87600     38.37900
  342     6     2      0.08809      34.07500      44.62900     39.39500
  343     6     2      0.08809      35.02800      43.18000     39.50900
  344     6     2      0.07554      33.96100      43.79700     41.64400
  345     6     2      0.07554      32.37000      43.70800     40.96000
  346     6     2      0.08497      34.14900      41.24000     40.82300
  347     6     2      0.08497      33.51100      41.70900     42.37100
  348     6     2      0.09364      31.70100      41.27300     39.95500
  349     6     2      0.09364      31.19000      41.55200     41.58900
  350     6     2      0.09088      32.77900      39.11600     40.62300
  351     6     2      0.09088      31.05400      39.16100     40.85900
  352     6     2      0.10234      33.13500      39.52400     43.06900
  353     6     2      0.10234      31.41200      39.68700     43.30300
  354     6     2      0.09372      31.07800      37.30600     42.60100
  355     6     2      0.09372      32.78000      37.16100     42.25700
  356     6     2      0.09492      33.32600      37.56000     44.67400
  357     6     2      0.09492      32.37700      36.12800     44.39100
  358     6     2      0.08101      30.27900      37.37700     45.06800
  359     6     2      0.08101      31.26900      38.78500     45.44900
  360     6     2      0.08100      31.47500      37.29700     46.35500
  361     7     4     -0.11370      12.13000      10.40800     19.47200
  362     7     4     -0.10165      12.32200      10.58300     18.08100
  363     7     4     -0.08749      11.58200      11.46900     20.21300
  364     7     3     -0.12114      12.91000       9.45800     17.25400
  365     7     3     -0.17557      11.85400       8.47000     16.73800
  366     7     3     -0.17109      12.39300       7.39200     15.78000
  367     7     3     -0.16302      13.40000       6.41300     16.41400
  368     7     3     -0.17736      14.87200       6.79300     16.16100
  369     7     3     -0.19065      15.87400       5.91900     16.93200
  370     7     3     -0.19179      15.89400       4.45100     16.47700
  371     7     3     -0.19724      16.98600       3.63600     17.19000
  372     7     3     -0.18180      16.96500       2.14000     16.83800
  373     7     3     -0.24743      17.32700       1.84700     15.37600
  374     7     3     -0.08319      11.29800      11.49100     21.69600
  375     7     3     -0.07331      10.86700      12.97400     21.96800
  376     7     3     -0.13598      10.64000      13.63500     20.58500
  377     7     4     -0.09797      11.22300      12.66300     19.60000
  378     7     4     -0.11246      11.39900      12.85600     18.21900
  379     7     4     -0.13587      11.95300      11.80200     17.46000
  380     7     4     -0.09117      12.02800      13.54400     22.74700
  381     7     4     -0.08076      12.95700      12.56700     23.08200
  382     7     4     -0.11762      14.11900      12.88000     23.80800
  383     7     4     -0.13488      14.32400      14.22200     24.19600
  384     7     4     -0.13488      13.37500      15.21800     23.86100
  385     7     3     -0.13709      12.53600      11.21300     22.58600
  386     7     4     -0.11762      12.21400      14.88400     23.13100
  387     7     1      0.13628      11.48700      15.64100     22.87200
  388     7     1      0.13628      14.83700      12.11500     24.06200
  389     7     1      0.13534      15.20900      14.48900     24.75400
  390     7     1      0.13534      13.54200      16.24200     24.16500
  391     7     2      0.10891      12.27300      10.59100     23.44100
  392     7     2      0.10891      13.34600      10.72800     22.04000
  393     7     2      0.12882      10.48700      10.79200     21.90100
  394     7     2      0.13078       9.97500      13.02400     22.59300
  395     7     2      0.11317      11.11900      14.61000     20.50100