LAMMPS data file of the system for full atom style

    4922 atoms
    4876 bonds
    9660 angles
   14076 dihedrals
    3220 impropers

    2 atom types
    2 bond types
    3 angle types
    2 dihedral types
    1 improper types

    0.000000    50.000000 xlo xhi
    0.000000    50.000000 ylo yhi
    0.000000    50.000000 zlo zhi

 Masses 

    1       1.0080
    2      12.0110

 Pair Coeffs 

    1       0.0300       2.5000
    2       0.0660       3.5000

 Bond Coeffs 

    1     268.0000        1.5290
    2     340.0000        1.0900

 Angle Coeffs 

    1      33.0000      107.8000
    2      37.5000      110.7000
    3      58.3500      112.7000

 Dihedral Coeffs 

    1       0.0000        0.0000       0.3000        0.0000
    2       1.3000       -0.2000       0.2000        0.0000

 Improper Coeffs 

    1       0.0000     -1     2

 Atoms 

    1     1     2     -0.23920       5.56100      26.80900     12.90000
    2     1     2     -0.18000       6.37600      26.75900     11.62100
    3     1     2     -0.17940       7.28600      27.97800     11.52200
    4     1     2     -0.18120       8.10700      27.94200     10.24500
    5     1     2     -0.17900       9.01500      29.16400     10.15800
    6     1     2     -0.18230       9.81900      29.09400      8.87400
    7     1     2     -0.18010      10.75500      30.28700      8.71800
    8     1     2     -0.18590      11.51100      30.11800      7.40600
    9     1     2     -0.16810      12.48400      31.26900      7.14600
   10     1     2     -0.02660      13.20200      31.22900      5.75900
   11     1     2     -0.16000      14.23800      32.39600      5.57000
   12     1     2     -0.17090      13.84100      33.88000      5.56700
   13     1     2     -0.17110      13.15100      34.43000      6.81300
   14     1     2     -0.17630      13.98100      34.22700      8.07600
   15     1     2     -0.18510      15.23400      35.07700      7.98300
   16     1     2     -0.17990      16.19300      34.83900      9.12400
   17     1     2     -0.18280      17.39500      35.74900      8.91000
   18     1     2     -0.17970      18.40500      35.56600     10.02500
   19     1     2     -0.18050      19.57400      36.52100      9.84400
   20     1     2     -0.23910      20.58000      36.33400     10.96300
   21     1     2     -0.16020      12.17900      31.19600      4.58000
   22     1     2     -0.18640      11.18000      32.35000      4.55300
   23     1     2     -0.18070      10.20600      32.28100      3.38900
   24     1     2     -0.18100       9.45300      33.61200      3.30300
   25     1     2     -0.17910       8.46000      33.60400      2.15600
   26     1     2     -0.17980       7.71300      34.93200      2.07800
   27     1     2     -0.23940       6.72100      34.91500      0.93000
   28     1     2     -0.17880      14.02900      29.89100      5.76400
   29     1     2     -0.18300      14.83900      29.60000      4.50800
   30     1     2     -0.18200      15.58700      28.28300      4.64200
   31     1     2     -0.18140      16.32800      28.00400      3.34000
   32     1     2     -0.17990      17.09600      26.69300      3.41300
   33     1     2     -0.18000      17.82200      26.44900      2.09300
   34     1     2     -0.17990      18.60300      25.14600      2.13200
   35     1     2     -0.23870      19.32200      24.91000      0.81300
   36     1     1      0.08080       4.90800      25.93500     12.96900
   37     1     1      0.08080       4.93700      27.70800     12.92700
   38     1     1      0.08080       6.21700      26.81800     13.77600
   39     1     1      0.08880       5.70000      26.72400     10.75800
   40     1     1      0.08880       6.97500      25.84100     11.60500
   41     1     1      0.08980       7.95900      28.00800     12.38900
   42     1     1      0.08980       6.68200      28.89400     11.54500
   43     1     1      0.08970       7.44100      27.91300      9.37300
   44     1     1      0.08970       8.71400      27.02800     10.21800
   45     1     1      0.09090       9.68900      29.19200     11.02200
   46     1     1      0.09090       8.41400      30.08100     10.17500
   47     1     1      0.08930       9.13800      29.05400      8.01800
   48     1     1      0.08930      10.40700      28.16800      8.86200
   49     1     1      0.09060      11.45800      30.33600      9.55800
   50     1     1      0.09060      10.18000      31.22000      8.71100
   51     1     1      0.09080      10.77900      30.05000      6.59500
   52     1     1      0.09080      12.04500      29.16400      7.45100
   53     1     1      0.09130      13.23200      31.26600      7.94800
   54     1     1      0.09130      11.90500      32.17900      7.26200
   55     1     1      0.08490      15.03600      32.26200      6.31300
   56     1     1      0.08490      14.72600      32.25000      4.59700
   57     1     1      0.08280      13.28100      34.14600      4.67000
   58     1     1      0.08280      14.76500      34.44800      5.39600
   59     1     1      0.08720      12.15000      34.01900      6.92800
   60     1     1      0.08720      12.98100      35.50600      6.67400
   61     1     1      0.09160      14.25600      33.17300      8.21600
   62     1     1      0.09160      13.39700      34.50900      8.96100
   63     1     1      0.08940      14.94300      36.13200      7.94100
   64     1     1      0.08940      15.78100      34.85900      7.06100
   65     1     1      0.09140      16.51500      33.78900      9.13300
   66     1     1      0.09140      15.71000      35.04900     10.08300
   67     1     1      0.08950      17.06200      36.79400      8.87100
   68     1     1      0.08950      17.86400      35.52700      7.94200
   69     1     1      0.09040      18.76200      34.52900     10.02700
   70     1     1      0.09040      17.91600      35.74800     10.98900
   71     1     1      0.08890      19.21500      37.55700      9.84100
   72     1     1      0.08890      20.05900      36.34300      8.87600
   73     1     1      0.08080      20.11100      36.52500     11.93500
   74     1     1      0.08080      21.41700      37.02300     10.84100
   75     1     1      0.08080      20.96600      35.30900     10.96500
   76     1     1      0.08730      11.62100      30.25200      4.60100
   77     1     1      0.08730      12.72500      31.19800      3.63000
   78     1     1      0.09220      11.70200      33.28700      4.42700
   79     1     1      0.09220      10.62500      32.42200      5.49200
   80     1     1      0.08970       9.50600      31.44800      3.53400
   81     1     1      0.08970      10.74900      32.10500      2.45200
   82     1     1      0.08900      10.17200      34.43100      3.15300
   83     1     1      0.08900       8.94100      33.80600      4.25100
   84     1     1      0.09000       7.74500      32.78600      2.29600
   85     1     1      0.09000       8.99000      33.42000      1.21300
   86     1     1      0.08910       8.42500      35.75500      1.93200
   87     1     1      0.08910       7.17800      35.11400      3.01600
   88     1     1      0.08060       7.22500      34.76400     -0.02400
   89     1     1      0.08060       6.18200      35.86600      0.88500
   90     1     1      0.08060       5.98900      34.11000      1.06500
   91     1     1      0.08980      13.35700      29.03700      5.90500
   92     1     1      0.08980      14.70800      29.90000      6.62700
   93     1     1      0.09110      15.57500      30.38700      4.32400
   94     1     1      0.09110      14.17700      29.54800      3.63800
   95     1     1      0.09050      14.88200      27.46400      4.84500
   96     1     1      0.09050      16.29200      28.32900      5.47900
   97     1     1      0.08970      17.02100      28.82700      3.13600
   98     1     1      0.08970      15.61000      27.96500      2.51500
   99     1     1      0.09030      16.40600      25.86700      3.62000
  100     1     1      0.09030      17.82000      26.73100      4.23700
  101     1     1      0.08960      18.50000      27.28800      1.89000
  102     1     1      0.08960      17.08800      26.42200      1.27600
  103     1     1      0.08870      17.92200      24.31000      2.33300
  104     1     1      0.08870      19.33500      25.17600      2.94700
  105     1     1      0.08090      18.60500      24.85500     -0.01300
  106     1     1      0.08090      19.87700      23.97200      0.85100
  107     1     1      0.08090      20.02400      25.72300      0.60600
  108     2     2     -0.23920      36.04900      28.02300     25.30300
  109     2     2     -0.18000      36.16400      27.39200     23.92800
  110     2     2     -0.17940      37.57500      26.86000     23.70400
  111     2     2     -0.18120      37.70700      26.22700     22.33000
  112     2     2     -0.17900      39.12100      25.69800     22.11700
  113     2     2     -0.18230      39.21400      25.07200     20.73800
  114     2     2     -0.18010      40.60500      24.51600     20.45500
  115     2     2     -0.18590      40.58900      23.91400     19.05500
  116     2     2     -0.16810      41.94400      23.32500     18.66300
  117     2     2     -0.02660      42.04000      22.80300     17.19400
  118     2     2     -0.16000      43.43100      22.14900     16.86300
  119     2     2     -0.17090      44.75600      22.92600     16.90500
  120     2     2     -0.17110      45.15400      23.57600     18.22800
  121     2     2     -0.17630      45.22800      22.56900     19.37100
  122     2     2     -0.18510      46.37500      21.61100     19.10900
  123     2     2     -0.17990      46.44600      20.48900     20.11500
  124     2     2     -0.18280      47.63200      19.61000     19.73900
  125     2     2     -0.17970      47.76800      18.45700     20.71300
  126     2     2     -0.18050      48.99000      17.61800     20.37400
  127     2     2     -0.23910      49.12100      16.46600     21.35100
  128     2     2     -0.16020      41.69000      23.91900     16.16000
  129     2     2     -0.18640      42.53700      25.18600     16.25900
  130     2     2     -0.18070      42.16500      26.24400     15.23300
  131     2     2     -0.18100      43.24500      27.33000     15.24000
  132     2     2     -0.17910      42.92900      28.42100     14.23400
  133     2     2     -0.17980      44.00700      29.49900     14.24800
  134     2     2     -0.23940      43.68200      30.58600     13.24100
  135     2     2     -0.17880      40.97000      21.65400     17.09600
  136     2     2     -0.18300      40.85300      20.96000     15.74600
  137     2     2     -0.18200      39.78700      19.87600     15.78800
  138     2     2     -0.18140      39.66100      19.25700     14.40100
  139     2     2     -0.17990      38.60500      18.16300     14.37900
  140     2     2     -0.18000      38.50800      17.57100     12.97700
  141     2     2     -0.17990      37.46100      16.47100     12.91900
  142     2     2     -0.23870      37.37000      15.88700     11.51800
  143     2     1      0.08080      35.03700      28.40400     25.46300
  144     2     1      0.08080      36.75100      28.85600     25.40700
  145     2     1      0.08080      36.26600      27.28800     26.08500
  146     2     1      0.08880      35.91700      28.13600     23.16200
  147     2     1      0.08880      35.43700      26.57500     23.83900
  148     2     1      0.08980      37.81700      26.11700     24.47400
  149     2     1      0.08980      38.29900      27.67900     23.80000
  150     2     1      0.08970      37.46700      26.96500     21.55300
  151     2     1      0.08970      36.98600      25.40600     22.22800
  152     2     1      0.09090      39.36100      24.95300     22.88400
  153     2     1      0.09090      39.84600      26.51500     22.20800
  154     2     1      0.08930      38.96100      25.82000     19.98000
  155     2     1      0.08930      38.47600      24.26400     20.65500
  156     2     1      0.09060      40.87200      23.75200     21.19400
  157     2     1      0.09060      41.35100      25.31600     20.51800
  158     2     1      0.09080      40.29700      24.69700     18.34800
  159     2     1      0.09080      39.81200      23.14300     19.03400
  160     2     1      0.09130      42.17200      22.50900     19.35900
  161     2     1      0.09130      42.67300      24.10700     18.84900
  162     2     1      0.08490      43.54300      21.25700     17.49500
  163     2     1      0.08490      43.38000      21.76600     15.83500
  164     2     1      0.08280      44.82800      23.64500     16.08800
  165     2     1      0.08280      45.54000      22.21600     16.61000
  166     2     1      0.08720      44.49700      24.40700     18.47600
  167     2     1      0.08720      46.14000      24.04300     18.10600
  168     2     1      0.09160      44.29200      22.00700     19.47900
  169     2     1      0.09160      45.38100      23.09200     20.32400
  170     2     1      0.08940      47.31300      22.17700     19.10100
  171     2     1      0.08940      46.27200      21.14600     18.12500
  172     2     1      0.09140      45.51900      19.89900     20.08700
  173     2     1      0.09140      46.55900      20.88600     21.12800
  174     2     1      0.08950      48.54900      20.21300     19.73900
  175     2     1      0.08950      47.50300      19.22500     18.71900
  176     2     1      0.09040      46.86300      17.83800     20.67400
  177     2     1      0.09040      47.85300      18.85100     21.73200
  178     2     1      0.08890      49.89300      18.23900     20.41300
  179     2     1      0.08890      48.90700      17.22900     19.35200
  180     2     1      0.08080      49.22000      16.84400     22.37600
  181     2     1      0.08080      50.00100      15.86600     21.11700
  182     2     1      0.08080      48.23500      15.82300     21.30800
  183     2     1      0.08730      40.63400      24.19700     16.25900
  184     2     1      0.08730      41.79800      23.51700     15.14600
  185     2     1      0.09220      43.57200      24.95300     16.05900
  186     2     1      0.09220      42.49700      25.61800     17.26200
  187     2     1      0.08970      41.18300      26.67100     15.47400
  188     2     1      0.08970      42.10100      25.79600     14.23400
  189     2     1      0.08900      44.21800      26.88200     14.99200
  190     2     1      0.08900      43.33400      27.75200     16.24600
  191     2     1      0.09000      41.95600      28.86700     14.47200
  192     2     1      0.09000      42.85300      27.98300     13.23100
  193     2     1      0.08910      44.98300      29.05800     14.00600
  194     2     1      0.08910      44.07900      29.94200     15.24800
  195     2     1      0.08060      43.63100      30.18400     12.23000
  196     2     1      0.08060      44.45400      31.36200     13.26300
  197     2     1      0.08060      42.71800      31.05400     13.47600
  198     2     1      0.08980      39.97500      22.05000     17.32900
  199     2     1      0.08980      41.19300      20.89900     17.86300
  200     2     1      0.09110      41.79900      20.49100     15.46200
  201     2     1      0.09110      40.59200      21.68800     14.97200
  202     2     1      0.09050      38.82000      20.30500     16.08700
  203     2     1      0.09050      40.05200      19.11000     16.52400
  204     2     1      0.08970      40.63000      18.84100     14.10300
  205     2     1      0.08970      39.40100      20.03600     13.67800
  206     2     1      0.09030      37.63500      18.57600     14.68000
  207     2     1      0.09030      38.86600      17.37900     15.10000
  208     2     1      0.08960      39.48700      17.17300     12.68100
  209     2     1      0.08960      38.25500      18.36700     12.26400
  210     2     1      0.08870      36.48300      16.87200     13.21200
  211     2     1      0.08870      37.71700      15.67700     13.63000
  212     2     1      0.08090      37.09500      16.66000     10.79400
  213     2     1      0.08090      36.61500      15.10000     11.48800
  214     2     1      0.08090      38.33100      15.45900     11.21600
  215     3     2     -0.23920      29.10800      30.69700     18.82500
  216     3     2     -0.18000      28.36400      29.65900     18.00500
  217     3     2     -0.17940      29.18500      29.25600     16.78600
  218     3     2     -0.18120      28.45100      28.21800     15.95400
  219     3     2     -0.17900      29.28200      27.82100     14.73900
  220     3     2     -0.18230      28.52000      26.78500     13.93400
  221     3     2     -0.18010      29.29400      26.33600     12.69900
  222     3     2     -0.18590      28.44600      25.30200     11.96900
  223     3     2     -0.16810      29.13000      24.78200     10.70400
  224     3     2     -0.02660      28.26700      23.81200      9.83600
  225     3     2     -0.16000      29.03900      23.25600      8.58400
  226     3     2     -0.17090      29.56300      24.15400      7.45300
  227     3     2     -0.17110      30.55600      25.25300      7.82400
  228     3     2     -0.17630      31.79500      24.70600      8.52500
  229     3     2     -0.18510      32.58200      23.86000      7.54200
  230     3     2     -0.17990      33.75600      23.15700      8.17900
  231     3     2     -0.18280      34.45400      22.35100      7.09100
  232     3     2     -0.17970      35.65100      21.61600      7.65900
  233     3     2     -0.18050      36.38400      20.86500      6.55900
  234     3     2     -0.23910      37.58000      20.13300      7.13300
  235     3     2     -0.16020      26.91500      24.46600      9.41000
  236     3     2     -0.18640      27.04100      25.78400      8.64900
  237     3     2     -0.18070      25.70200      26.38400      8.25200
  238     3     2     -0.18100      25.95500      27.53000      7.26700
  239     3     2     -0.17910      24.65100      28.17400      6.83300
  240     3     2     -0.17980      24.91100      29.31500      5.85500
  241     3     2     -0.23940      23.60300      29.95400      5.42800
  242     3     2     -0.17880      27.97400      22.57800     10.76600
  243     3     2     -0.18300      27.13700      21.46300     10.15600
  244     3     2     -0.18200      26.92800      20.33600     11.15600
  245     3     2     -0.18140      26.03200      19.27700     10.52400
  246     3     2     -0.17990      25.78500      18.12200     11.48200
  247     3     2     -0.18000      24.88500      17.08600     10.81500
  248     3     2     -0.17990      24.61800      15.91500     11.74400
  249     3     2     -0.23870      23.72000      14.88700     11.07200
  250     3     1      0.08080      28.51800      30.98600     19.69800
  251     3     1      0.08080      29.30400      31.59400     18.22800
  252     3     1      0.08080      30.06600      30.29800     19.17400
  253     3     1      0.08880      27.39700      30.06700     17.68800
  254     3     1      0.08880      28.16000      28.77900     18.62700
  255     3     1      0.08980      30.15100      28.84900     17.10900
  256     3     1      0.08980      29.39200      30.14000     16.16900
  257     3     1      0.08970      27.48300      28.61900     15.62500
  258     3     1      0.08970      28.24300      27.33100     16.56500
  259     3     1      0.09090      30.24600      27.41100     15.06100
  260     3     1      0.09090      29.48600      28.70200     14.11800
  261     3     1      0.08930      27.55500      27.19900     13.62600
  262     3     1      0.08930      28.31200      25.91300     14.56800
  263     3     1      0.09060      30.25900      25.90300     12.98700
  264     3     1      0.09060      29.49600      27.19500     12.04800
  265     3     1      0.09080      27.48500      25.76200     11.71900
  266     3     1      0.09080      28.25000      24.48200     12.66700
  267     3     1      0.09130      30.05800      24.28000     11.00400
  268     3     1      0.09130      29.41900      25.66300     10.13900
  269     3     1      0.08490      29.87900      22.64800      8.94800
  270     3     1      0.08490      28.37400      22.54700      8.07400
  271     3     1      0.08280      28.75000      24.56000      6.85000
  272     3     1      0.08280      30.03400      23.48600      6.72000
  273     3     1      0.08720      30.08200      26.03500      8.41400
  274     3     1      0.08720      30.87000      25.76700      6.90500
  275     3     1      0.09160      31.53100      24.10500      9.40500
  276     3     1      0.09160      32.41400      25.53200      8.89500
  277     3     1      0.08940      32.91900      24.49700      6.71700
  278     3     1      0.08940      31.94700      23.08200      7.10700
  279     3     1      0.09140      33.40600      22.48600      8.97600
  280     3     1      0.09140      34.44100      23.88200      8.62900
  281     3     1      0.08950      34.77300      23.02400      6.28400
  282     3     1      0.08950      33.75000      21.63300      6.64800
  283     3     1      0.09040      35.31500      20.91700      8.43500
  284     3     1      0.09040      36.32500      22.33700      8.13500
  285     3     1      0.08890      36.71700      21.56600      5.78500
  286     3     1      0.08890      35.70600      20.14800      6.07800
  287     3     1      0.08080      38.27200      20.84100      7.60400
  288     3     1      0.08080      38.11300      19.59900      6.34600
  289     3     1      0.08080      37.26100      19.41200      7.89300
  290     3     1      0.08730      26.29000      24.63300     10.29500
  291     3     1      0.08730      26.35700      23.76300      8.78100
  292     3     1      0.09220      27.56400      25.62300      7.71800
  293     3     1      0.09220      27.61900      26.52000      9.21400
  294     3     1      0.08970      25.17500      26.74700      9.14300
  295     3     1      0.08970      25.07300      25.62200      7.77500
  296     3     1      0.08900      26.48000      27.14400      6.38100
  297     3     1      0.08900      26.61300      28.27300      7.73000
  298     3     1      0.09000      24.12000      28.55500      7.71300
  299     3     1      0.09000      24.00900      27.42000      6.36200
  300     3     1      0.08910      25.43900      28.93800      4.97000
  301     3     1      0.08910      25.54700      30.07300      6.32600
  302     3     1      0.08060      22.95700      29.23300      4.92900
  303     3     1      0.08060      23.79600      30.77800      4.73400
  304     3     1      0.08060      23.06700      30.35500      6.29700
  305     3     1      0.08980      27.44400      22.90700     11.66700
  306     3     1      0.08980      28.93100      22.15700     11.10300
  307     3     1      0.09110      27.62600      21.04200      9.27300
  308     3     1      0.09110      26.16100      21.85200      9.84700
  309     3     1      0.09050      26.45100      20.72200     12.06900
  310     3     1      0.09050      27.89000      19.90000     11.44400
  311     3     1      0.08970      26.50600      18.90500      9.61000
  312     3     1      0.08970      25.07800      19.73200     10.23900
  313     3     1      0.09030      25.31300      18.49300     12.39900
  314     3     1      0.09030      26.73900      17.66200     11.76500
  315     3     1      0.08960      25.36100      16.73200      9.89000
  316     3     1      0.08960      23.93700      17.56000     10.52800
  317     3     1      0.08870      24.14100      16.27100     12.66500
  318     3     1      0.08870      25.56600      15.44200     12.02700
  319     3     1      0.08090      22.76000      15.33400     10.79900
  320     3     1      0.08090      23.53400      14.05200     11.74800
  321     3     1      0.08090      24.19100      14.50100     10.16300
  322     4     2     -0.23920      39.08100      10.67700     41.50000
  323     4     2     -0.18000      37.66800      10.31600     41.07900
  324     4     2     -0.17940      37.57300      10.22400     39.56100
  325     4     2     -0.18120      36.16300       9.86500     39.12400
  326     4     2     -0.17900      36.07900       9.77400     37.60500
  327     4     2     -0.18230      34.66100       9.41200     37.20700
  328     4     2     -0.18010      34.50100       9.30100     35.69500
  329     4     2     -0.18590      33.05000       8.93500     35.40600
  330     4     2     -0.16810      32.77500       8.79900     33.90800
  331     4     2     -0.02660      31.28000       8.55000     33.52900
  332     4     2     -0.16000      31.06300       8.35300     31.98500
  333     4     2     -0.17090      31.37200       9.44200     30.94600
  334     4     2     -0.17110      32.80400       9.96700     30.87700
  335     4     2     -0.17630      33.82000       8.85700     30.62800
  336     4     2     -0.18510      33.60100       8.29400     29.23600
  337     4     2     -0.17990      34.46700       7.09300     28.94400
  338     4     2     -0.18280      34.15100       6.63400     27.52700
  339     4     2     -0.17970      34.99000       5.42600     27.16100
  340     4     2     -0.18050      34.72000       5.00800     25.72300
  341     4     2     -0.23910      35.56200       3.80100     25.36300
  342     4     2     -0.16020      30.34900       9.67400     34.08300
  343     4     2     -0.18640      30.70900      11.09200     33.64500
  344     4     2     -0.18070      29.77600      12.15400     34.20400
  345     4     2     -0.18100      30.05600      13.47600     33.48400
  346     4     2     -0.17910      29.15300      14.58100     34.00100
  347     4     2     -0.17980      29.43800      15.89500     33.28100
  348     4     2     -0.23940      28.53400      16.99400     33.80600
  349     4     2     -0.17880      30.90500       7.18400     34.21300
  350     4     2     -0.18300      29.47900       6.69700     33.99900
  351     4     2     -0.18200      29.24900       5.37300     34.71100
  352     4     2     -0.18140      27.79400       4.96000     34.52300
  353     4     2     -0.17990      27.50200       3.63800     35.21700
  354     4     2     -0.18000      26.03900       3.26100     35.00800
  355     4     2     -0.17990      25.71200       1.94200     35.68700
  356     4     2     -0.23870      24.25200       1.57400     35.47500
  357     4     1      0.08080      39.14800      10.74400     42.58900
  358     4     1      0.08080      39.37600      11.64300     41.07600
  359     4     1      0.08080      39.79200       9.91800     41.15700
  360     4     1      0.08880      36.97000      11.07300     41.45500
  361     4     1      0.08880      37.38700       9.35700     41.53100
  362     4     1      0.08980      38.27400       9.46600     39.19100
  363     4     1      0.08980      37.86100      11.18300     39.11300
  364     4     1      0.08970      35.45500      10.62000     39.49000
  365     4     1      0.08970      35.86900       8.90500     39.56900
  366     4     1      0.09090      36.77800       9.01400     37.23600
  367     4     1      0.09090      36.36200      10.73300     37.15400
  368     4     1      0.08930      33.96900      10.17000     37.59000
  369     4     1      0.08930      34.38400       8.45800     37.67200
  370     4     1      0.09060      35.17300       8.53400     35.29300
  371     4     1      0.09060      34.75800      10.25300     35.21700
  372     4     1      0.09080      32.40900       9.70900     35.84100
  373     4     1      0.09080      32.83500       7.99600     35.92500
  374     4     1      0.09130      33.39300       7.97900     33.52400
  375     4     1      0.09130      33.14800       9.71200     33.45300
  376     4     1      0.08490      31.59300       7.43900     31.68400
  377     4     1      0.08490      29.99900       8.13000     31.82700
  378     4     1      0.08280      30.66300      10.26900     31.00500
  379     4     1      0.08280      31.10300       9.02200     29.96700
  380     4     1      0.08720      33.06000      10.54400     31.76400
  381     4     1      0.08720      32.87100      10.69500     30.05800
  382     4     1      0.09160      33.73400       8.05400     31.37100
  383     4     1      0.09160      34.83900       9.25200     30.72100
  384     4     1      0.08940      33.78500       9.08600     28.50100
  385     4     1      0.08940      32.56300       7.97300     29.10800
  386     4     1      0.09140      34.24600       6.28700     29.65700
  387     4     1      0.09140      35.52600       7.34800     29.04500
  388     4     1      0.08950      34.34500       7.45400     26.82300
  389     4     1      0.08950      33.08400       6.38700     27.44300
  390     4     1      0.09040      34.75700       4.60000     27.84400
  391     4     1      0.09040      36.05100       5.67000     27.28800
  392     4     1      0.08890      34.95200       5.83600     25.04300
  393     4     1      0.08890      33.65700       4.77000     25.59400
  394     4     1      0.08080      36.62800       4.03100     25.47400
  395     4     1      0.08080      35.37700       3.50200     24.33000
  396     4     1      0.08080      35.32600       2.95700     26.02000
  397     4     1      0.08730      30.33900       9.64000     35.17900
  398     4     1      0.08730      29.31800       9.47400     33.76900
  399     4     1      0.09220      30.62300      11.17900     32.57300
  400     4     1      0.09220      31.74200      11.34100     33.90100
  401     4     1      0.08970      29.93300      12.25900     35.28500
  402     4     1      0.08970      28.73100      11.86100     34.04300
  403     4     1      0.08900      29.88800      13.34900     32.40500
  404     4     1      0.08900      31.10800      13.75000     33.61500