LAMMPS data file of the system for full atom style

    4984 atoms
    5162 bonds
    8544 angles
   12282 dihedrals
    2136 impropers

    4 atom types
    5 bond types
    7 angle types
    6 dihedral types
    1 improper types

    0.000000    50.000000 xlo xhi
    0.000000    50.000000 ylo yhi
    0.000000    50.000000 zlo zhi

 Masses 

    1       1.0080
    2       1.0080
    3      12.0110
    4      12.0110

 Pair Coeffs 

    1       0.0300       2.4200
    2       0.0300       2.5000
    3       0.0660       3.5000
    4       0.0700       3.5500

 Bond Coeffs 

    1     268.0000        1.5290
    2     317.0000        1.5100
    3     340.0000        1.0900
    4     367.0000        1.0800
    5     469.0000        1.4000

 Angle Coeffs 

    1      33.0000      107.8000
    2      35.0000      109.5000
    3      35.0000      120.0000
    4      37.5000      110.7000
    5      63.0000      114.0000
    6      63.0000      120.0000
    7      70.0000      120.0000

 Dihedral Coeffs 

    1      -1.6970       -0.4560       0.5850        0.0000
    2      -0.2500        0.0000       0.0000        0.0000
    3       0.0000        0.0000       0.0000        0.0000
    4       0.0000        0.0000       0.3000        0.0000
    5       0.0000        0.0000       0.4620        0.0000
    6       0.0000        7.2500       0.0000        0.0000

 Improper Coeffs 

    1       2.5000     -1     2

 Atoms 

    1     1     4     -0.12667      18.08000      47.76100     41.20500
    2     1     4     -0.06203      18.74200      46.78300     41.97700
    3     1     4     -0.14395      17.55900      48.91600     41.82000
    4     1     4     -0.14340      17.69800      49.09800     43.21100
    5     1     4     -0.14395      18.36100      48.12500     43.98300
    6     1     4     -0.12667      18.88400      46.97000     43.36800
    7     1     3     -0.13842      19.31100      45.54300     41.31300
    8     1     3     -0.13579      20.76200      45.68600     40.82500
    9     1     4     -0.06582      20.95100      46.67400     39.68900
   10     1     4     -0.13115      20.82000      46.24900     38.35100
   11     1     4     -0.14154      20.98600      47.16700     37.29600
   12     1     4     -0.13582      21.28300      48.51500     37.57500
   13     1     4     -0.14154      21.41100      48.94400     38.91100
   14     1     4     -0.13115      21.24400      48.02500     39.96500
   15     1     1      0.13502      21.41100      49.22000     36.76700
   16     1     1      0.13766      21.63100      49.97900     39.12900
   17     1     1      0.13742      21.32900      48.36300     40.98900
   18     1     1      0.13742      20.58800      45.21700     38.12800
   19     1     1      0.13766      20.88700      46.83700     36.27300
   20     1     2      0.09865      21.13100      44.71400     40.49700
   21     1     2      0.09865      21.40200      45.97700     41.65800
   22     1     2      0.09840      19.24600      44.71500     42.02000
   23     1     2      0.09840      18.66800      45.26400     40.47700
   24     1     1      0.14207      17.98500      47.63300     40.13600
   25     1     1      0.13203      17.05700      49.66400     41.22300
   26     1     1      0.14041      17.29900      49.98400     43.68200
   27     1     1      0.13203      18.47100      48.26500     45.04900
   28     1     1      0.14207      19.39500      46.23100     43.96700
   29     2     4     -0.12667      14.21600      19.02100     40.38400
   30     2     4     -0.06203      12.93800      18.60400     40.81300
   31     2     4     -0.14395      14.73400      20.26200     40.80400
   32     2     4     -0.14340      13.97600      21.09100     41.65500
   33     2     4     -0.14395      12.70200      20.67600     42.08700
   34     2     4     -0.12667      12.18400      19.43400     41.66900
   35     2     3     -0.13842      12.38400      17.26300     40.36800
   36     2     3     -0.13579      12.73100      16.08700     41.29400
   37     2     4     -0.06582      14.20700      15.73400     41.33800
   38     2     4     -0.13115      14.74400      14.81900     40.40900
   39     2     4     -0.14154      16.11400      14.49700     40.44300
   40     2     4     -0.13582      16.95400      15.08900     41.40600
   41     2     4     -0.14154      16.42200      16.00600     42.33300
   42     2     4     -0.13115      15.05000      16.32800     42.29900
   43     2     1      0.13502      18.00500      14.84200     41.43300
   44     2     1      0.13766      17.06400      16.46800     43.06900
   45     2     1      0.13742      14.65000      17.04300     43.00300
   46     2     1      0.13742      14.10700      14.36300     39.66400
   47     2     1      0.13766      16.52200      13.79500     39.73100
   48     2     2      0.09865      12.17700      15.20200     40.98000
   49     2     2      0.09865      12.38900      16.30300     42.30700
   50     2     2      0.09840      11.30000      17.35200     40.28500
   51     2     2      0.09840      12.73700      17.05300     39.35800
   52     2     1      0.14207      14.80700      18.38100     39.74400
   53     2     1      0.13203      15.71500      20.57400     40.47500
   54     2     1      0.14041      14.37400      22.04200     41.97600
   55     2     1      0.13203      12.12200      21.30900     42.74200
   56     2     1      0.14207      11.20800      19.12100     42.00900
   57     3     4     -0.12667      19.83900      37.96700     14.16400
   58     3     4     -0.06203      19.62100      39.20400     13.52200
   59     3     4     -0.14395      18.74800      37.21900     14.64900
   60     3     4     -0.14340      17.43500      37.70400     14.49100
   61     3     4     -0.14395      17.21400      38.93700     13.84700
   62     3     4     -0.12667      18.30500      39.68500     13.36200
   63     3     3     -0.13842      20.79600      40.00600     12.99300
   64     3     3     -0.13579      21.19300      39.68200     11.54300
   65     3     4     -0.06582      21.74500      38.28300     11.33900
   66     3     4     -0.13115      23.12600      38.03800     11.49400
   67     3     4     -0.14154      23.63900      36.73900     11.31300
   68     3     4     -0.13582      22.77400      35.68000     10.97800
   69     3     4     -0.14154      21.39400      35.92000     10.82600
   70     3     4     -0.13115      20.88200      37.22000     11.00700
   71     3     1      0.13502      23.16700      34.68300     10.83900
   72     3     1      0.13766      20.72600      35.10800     10.57500
   73     3     1      0.13742      19.82000      37.39600     10.90300
   74     3     1      0.13742      23.79600      38.84400     11.75500
   75     3     1      0.13766      24.69700      36.55500     11.43100
   76     3     2      0.09865      21.94100      40.39800     11.20300
   77     3     2      0.09865      20.33300      39.82100     10.88700
   78     3     2      0.09840      20.55100      41.06600     13.07300
   79     3     2      0.09840      21.65300      39.85400     13.65100
   80     3     1      0.14207      20.84400      37.58300     14.27300
   81     3     1      0.13203      18.92100      36.27000     15.13600
   82     3     1      0.14041      16.59900      37.13000     14.86200
   83     3     1      0.13203      16.20700      39.30900     13.72300
   84     3     1      0.14207      18.12700      40.62700     12.86500
   85     4     4     -0.12667      38.68400      30.26700     28.36400
   86     4     4     -0.06203      39.88400      30.47500     27.65200
   87     4     4     -0.14395      37.68000      31.25400     28.36300
   88     4     4     -0.14340      37.87100      32.45300     27.64900
   89     4     4     -0.14395      39.06700      32.66200     26.93400
   90     4     4     -0.12667      40.07100      31.67400     26.93400
   91     4     3     -0.13842      40.96300      29.40700     27.64600
   92     4     3     -0.13579      40.83800      28.37600     26.51300
   93     4     4     -0.06582      39.61600      27.48200     26.60500
   94     4     4     -0.13115      39.67300      26.27800     27.33900
   95     4     4     -0.14154      38.53700      25.45100     27.43300
   96     4     4     -0.13582      37.33800      25.82500     26.79500
   97     4     4     -0.14154      37.27600      27.02800     26.06500
   98     4     4     -0.13115      38.41300      27.85500     25.97200
   99     4     1      0.13502      36.46600      25.19100     26.86700
  100     4     1      0.13766      36.35600      27.32200     25.58100
  101     4     1      0.13742      38.35600      28.78400     25.42200
  102     4     1      0.13742      40.58700      25.98600     27.83400
  103     4     1      0.13766      38.58500      24.53000     27.99400
  104     4     2      0.09865      41.72500      27.74200     26.50000
  105     4     2      0.09865      40.82900      28.88800     25.54900
  106     4     2      0.09840      41.93300      29.90100     27.58200
  107     4     2      0.09840      40.95900      28.89600     28.61000
  108     4     1      0.14207      38.52700      29.34100     28.90100
  109     4     1      0.13203      36.76200      31.08800     28.90700
  110     4     1      0.14041      37.10100      33.21000     27.64800
  111     4     1      0.13203      39.21300      33.58000     26.38400
  112     4     1      0.14207      40.98300      31.84000     26.37900
  113     5     4     -0.12667      40.70300      24.53900     37.15500
  114     5     4     -0.06203      41.43500      25.68300     37.53800
  115     5     4     -0.14395      40.26200      23.62100     38.12800
  116     5     4     -0.14340      40.55000      23.84500     39.48900
  117     5     4     -0.14395      41.27700      24.98700     39.87500
  118     5     4     -0.12667      41.71700      25.90600     38.90200
  119     5     3     -0.13842      41.90300      26.67500     36.48900
  120     5     3     -0.13579      40.90500      27.80400     36.18400
  121     5     4     -0.06582      39.61800      27.34500     35.52300
  122     5     4     -0.13115      39.53900      27.25100     34.11800
  123     5     4     -0.14154      38.34800      26.81800     33.50300
  124     5     4     -0.13582      37.23200      26.47600     34.29100
  125     5     4     -0.14154      37.30900      26.56400     35.69500
  126     5     4     -0.13115      38.50100      26.99800     36.30900
  127     5     1      0.13502      36.31800      26.14300     33.82000
  128     5     1      0.13766      36.45700      26.29600     36.30300
  129     5     1      0.13742      38.55900      27.05000     37.38700
  130     5     1      0.13742      40.39200      27.50900     33.50600
  131     5     1      0.13766      38.29100      26.74900     32.42700
  132     5     2      0.09865      41.37900      28.54100     35.53600
  133     5     2      0.09865      40.66000      28.33600     37.10400
  134     5     2      0.09840      42.84700      27.10700     36.82500
  135     5     2      0.09840      42.13900      26.13500     35.57200
  136     5     1      0.14207      40.46700      24.37100     36.11300
  137     5     1      0.13203      39.69900      22.75000     37.82900
  138     5     1      0.14041      40.21100      23.14100     40.23500
  139     5     1      0.13203      41.49500      25.16100     40.91900
  140     5     1      0.14207      42.27100      26.78200     39.20600
  141     6     4     -0.12667      37.87300      20.10700     44.16200
  142     6     4     -0.06203      37.80200      20.06200     45.57000
  143     6     4     -0.14395      39.05800      19.72900     43.50000
  144     6     4     -0.14340      40.17600      19.30300     44.24500
  145     6     4     -0.14395      40.10600      19.25500     45.65000
  146     6     4     -0.12667      38.92100      19.63200     46.31200
  147     6     3     -0.13842      36.52200      20.46200     46.28200
  148     6     3     -0.13579      35.53000      19.31100     46.51100
  149     6     4     -0.06582      34.92800      18.73600     45.24100
  150     6     4     -0.13115      33.75100      19.29300     44.69900
  151     6     4     -0.14154      33.19700      18.76600     43.51700
  152     6     4     -0.13582      33.81800      17.68000     42.87100
  153     6     4     -0.14154      34.99500      17.12300     43.40700
  154     6     4     -0.13115      35.54900      17.65100     44.59000
  155     6     1      0.13502      33.39300      17.27500     41.96400
  156     6     1      0.13766      35.47800      16.29400     42.91000
  157     6     1      0.13742      36.46100      17.22900     44.98900
  158     6     1      0.13742      33.27100      20.12900     45.18700
  159     6     1      0.13766      32.29500      19.19500     43.10600
  160     6     2      0.09865      34.71600      19.65500     47.14900
  161     6     2      0.09865      36.01900      18.50800     47.06500
  162     6     2      0.09840      36.78900      20.90600     47.24200
  163     6     2      0.09840      36.03700      21.25900     45.71600
  164     6     1      0.14207      37.01200      20.41700     43.58600
  165     6     1      0.13203      39.10500      19.76000     42.42200
  166     6     1      0.14041      41.08400      19.01300     43.73700
  167     6     1      0.13203      40.96200      18.92600     46.22200
  168     6     1      0.14207      38.87500      19.58700     47.39000
  169     7     4     -0.12667      14.33100      48.22000      9.84200
  170     7     4     -0.06203      14.26600      46.84000      9.55400
  171     7     4     -0.14395      13.15300      48.94500     10.10800
  172     7     4     -0.14340      11.90400      48.29200     10.08800
  173     7     4     -0.14395      11.83700      46.91400      9.80400
  174     7     4     -0.12667      13.01500      46.18900      9.53900
  175     7     3     -0.13842      15.53700      46.05900      9.27500
  176     7     3     -0.13579      16.19800      45.44600     10.52000
  177     7     4     -0.06582      16.75100      46.46000     11.50400
  178     7     4     -0.13115      18.07100      46.93800     11.36100
  179     7     4     -0.14154      18.58300      47.88600     12.26800
  180     7     4     -0.13582      17.77800      48.36100     13.32000
  181     7     4     -0.14154      16.45800      47.89000     13.46400
  182     7     4     -0.13115      15.94600      46.94100     12.55600
  183     7     1      0.13502      18.17000      49.08800     14.01700
  184     7     1      0.13766      15.83500      48.25700     14.26600
  185     7     1      0.13742      14.92800      46.59300     12.66200
  186     7     1      0.13742      18.69400      46.58100     10.55300
  187     7     1      0.13766      19.59400      48.24800     12.15600
  188     7     2      0.09865      17.01200      44.78900     10.21200
  189     7     2      0.09865      15.48300      44.80500     11.03800
  190     7     2      0.09840      15.30200      45.26700      8.56300
  191     7     2      0.09840      16.24700      46.71000      8.76400
  192     7     1      0.14207      15.28800      48.72200      9.87300
  193     7     1      0.13203      13.20900      50.00000     10.33200
  194     7     1      0.14041      11.00100      48.84800     10.29300
  195     7     1      0.13203      10.88000      46.41200      9.79200
  196     7     1      0.14207      12.95500      45.13200      9.32700
  197     8     4     -0.12667       6.51400      15.38300      5.44000
  198     8     4     -0.06203       6.84600      14.23500      6.19000
  199     8     4     -0.14395       5.21000      15.91300      5.49500
  200     8     4     -0.14340       4.23300      15.29800      6.30300
  201     8     4     -0.14395       4.56200      14.15500      7.05600
  202     8     4     -0.12667       5.86600      13.62500      7.00100
  203     8     3     -0.13842       8.25300      13.66900      6.13600
  204     8     3     -0.13579       9.21700      14.24700      7.18500
  205     8     4     -0.06582       9.54300      15.71700      6.99900
  206     8     4     -0.13115      10.62200      16.10500      6.17700
  207     8     4     -0.14154      10.92000      17.46900      5.99700
  208     8     4     -0.13582      10.14000      18.45200      6.63600
  209     8     4     -0.14154       9.05900      18.06900      7.45400
  210     8     4     -0.13115       8.76100      16.70400      7.63500
  211     8     1      0.13502      10.36800      19.49900      6.49900
  212     8     1      0.13766       8.45400      18.82000      7.94100
  213     8     1      0.13742       7.92200      16.41500      8.25200
  214     8     1      0.13742      11.22200      15.35700      5.68000
  215     8     1      0.13766      11.74800      17.76200      5.36800
  216     8     2      0.09865      10.15100      13.68500      7.16800
  217     8     2      0.09865       8.80400      14.10000      8.18400
  218     8     2      0.09840       8.19100      12.58700      6.25900
  219     8     2      0.09840       8.65900      13.82700      5.13700
  220     8     1      0.14207       7.26500      15.86700      4.83100
  221     8     1      0.13203       4.96300      16.79400      4.92100
  222     8     1      0.14041       3.23400      15.70600      6.34500
  223     8     1      0.13203       3.81400      13.68400      7.67800
  224     8     1      0.14207       6.11200      12.75000      7.58600
  225     9     4     -0.12667      23.31400      38.57500     15.42300
  226     9     4     -0.06203      23.94400      37.34400     15.70500
  227     9     4     -0.14395      22.11500      38.92300     16.07500
  228     9     4     -0.14340      21.54300      38.04300     17.01500
  229     9     4     -0.14395      22.17100      36.81600     17.30100
  230     9     4     -0.12667      23.37100      36.46700     16.64900
  231     9     3     -0.13842      25.24000      36.97300     15.00800
  232     9     3     -0.13579      26.51400      37.43300     15.73600
  233     9     4     -0.06582      26.69700      38.93800     15.79700
  234     9     4     -0.13115      27.36500      39.61300     14.75400
  235     9     4     -0.14154      27.52900      41.01100     14.80500
  236     9     4     -0.13582      27.02300      41.74000     15.89900
  237     9     4     -0.14154      26.35200      41.07000     16.94000
  238     9     4     -0.13115      26.18900      39.67100     16.88800
  239     9     1      0.13502      27.14800      42.81200     15.93900
  240     9     1      0.13766      25.95600      41.62700     17.77700
  241     9     1      0.13742      25.66000      39.16300     17.68300
  242     9     1      0.13742      27.75300      39.06100     13.90900
  243     9     1      0.13766      28.04200      41.52400     14.00500
  244     9     2      0.09865      27.38700      37.00200     15.24500
  245     9     2      0.09865      26.52100      37.03400     16.75100
  246     9     2      0.09840      25.26400      35.89000     14.88400
  247     9     2      0.09840      25.22700      37.38200     13.99700
  248     9     1      0.14207      23.75800      39.26000     14.71400
  249     9     1      0.13203      21.64000      39.86800     15.85800
  250     9     1      0.14041      20.62400      38.31000     17.51500
  251     9     1      0.13203      21.73500      36.14100     18.02400
  252     9     1      0.14207      23.84900      35.52700     16.87900
  253    10     4     -0.12667       6.99000      23.70700     10.89200
  254    10     4     -0.06203       6.05500      24.69500     11.26900
  255    10     4     -0.14395       6.57400      22.58500     10.15000
  256    10     4     -0.14340       5.22200      22.44700      9.77900
  257    10     4     -0.14395       4.28800      23.43200     10.15000
  258    10     4     -0.12667       4.70300      24.55600     10.89200
  259    10     3     -0.13842       6.50500      25.90800     12.06300
  260    10     3     -0.13579       6.95100      27.10400     11.20700
  261    10     4     -0.06582       8.21200      26.86600     10.39700
  262    10     4     -0.13115       9.47700      27.13500     10.96100
  263    10     4     -0.14154      10.64900      26.90600     10.21400
  264    10     4     -0.13582      10.56100      26.40600      8.90100
  265    10     4     -0.14154       9.30000      26.13200      8.33600
  266    10     4     -0.13115       8.12800      26.36100      9.08300
  267    10     1      0.13502      11.45900      26.23000      8.32700
  268    10     1      0.13766       9.22900      25.74200      7.33100
  269    10     1      0.13742       7.16400      26.13600      8.65000
  270    10     1      0.13742       9.55300      27.51500     11.97000
  271    10     1      0.13766      11.61500      27.11400     10.64900
  272    10     2      0.09865       7.11600      27.96900     11.85000
  273    10     2      0.09865       6.14500      27.39200     10.52900
  274    10     2      0.09840       5.68600      26.21300     12.71400
  275    10     2      0.09840       7.31500      25.61200     12.73100
  276    10     1      0.14207       8.03100      23.81700     11.16100
  277    10     1      0.13203       7.29500      21.83400      9.86000
  278    10     1      0.14041       4.90400      21.58600      9.20800
  279    10     1      0.13203       3.25100      23.32900      9.86300
  280    10     1      0.14207       3.98100      25.30900     11.16900
  281    11     4     -0.12667       2.18900      27.64000     39.20800
  282    11     4     -0.06203       1.79900      27.48200     40.55500
  283    11     4     -0.14395       3.18800      28.57100     38.86400
  284    11     4     -0.14340       3.80200      29.34800     39.86600
  285    11     4     -0.14395       3.41700      29.19100     41.21200
  286    11     4     -0.12667       2.41900      28.25800     41.55600
  287    11     3     -0.13842       0.72800      26.47300     40.92600
  288    11     3     -0.13579       1.25700      25.06500     41.24400
  289    11     4     -0.06582       1.87000      24.34000     40.06100
  290    11     4     -0.13115       1.06000      23.55700     39.21200
  291    11     4     -0.14154       1.62600      22.89100     38.10800
  292    11     4     -0.13582       3.00500      23.00400     37.84800
  293    11     4     -0.14154       3.81700      23.78800     38.69100
  294    11     4     -0.13115       3.25000      24.45500     39.79500
  295    11     1      0.13502       3.44000      22.49300     37.00100
  296    11     1      0.13766       4.87500      23.88300     38.49000
  297    11     1      0.13742       3.87500      25.06600     40.43100
  298    11     1      0.13742      -0.00000      23.46800     39.40300
  299    11     1      0.13766       1.00200      22.29100     37.46200
  300    11     2      0.09865       0.44500      24.45200     41.63700
  301    11     2      0.09865       1.99500      25.12200     42.04500
  302    11     2      0.09840       0.17900      26.85700     41.78700
  303    11     2      0.09840      -0.00100      26.41700     40.11600
  304    11     1      0.14207       1.73100      27.03400     38.43800
  305    11     1      0.13203       3.48500      28.68400     37.83200
  306    11     1      0.14041       4.56900      30.06200     39.60200
  307    11     1      0.13203       3.89000      29.78400     41.98100
  308    11     1      0.14207       2.13300      28.14100     42.59100
  309    12     4     -0.12667       2.02700      17.47400     40.04300
  310    12     4     -0.06203       3.26400      17.07100     40.59000
  311    12     4     -0.14395       0.99000      16.53800     39.87000
  312    12     4     -0.14340       1.18400      15.19400     40.24400
  313    12     4     -0.14395       2.41600      14.78900     40.79400
  314    12     4     -0.12667       3.45300      15.72600     40.96800
  315    12     3     -0.13842       4.37900      18.08200     40.78400
  316    12     3     -0.13579       4.36700      18.79500     42.14600
  317    12     4     -0.06582       3.17500      19.70600     42.37100
  318    12     4     -0.13115       3.22700      21.05500     41.96100
  319    12     4     -0.14154       2.11800      21.90000     42.16200
  320    12     4     -0.13582       0.95200      21.39900     42.77100
  321    12     4     -0.14154       0.89500      20.05200     43.17800
  322    12     4     -0.13115       2.00400      19.20700     42.97800
  323    12     1      0.13502       0.10100      22.04700     42.92600
  324    12     1      0.13766      -0.00100      19.66200     43.64000
  325    12     1      0.13742       1.95000      18.17100     43.27900
  326    12     1      0.13742       4.11700      21.44600     41.48900
  327    12     1      0.13766       2.16300      22.93200     41.84800
  328    12     2      0.09865       5.27600      19.38800     42.25300
  329    12     2      0.09865       4.40400      18.05600     42.94800
  330    12     2      0.09840       5.33200      17.57000     40.65100
  331    12     2      0.09840       4.32900      18.82100     39.98300
  332    12     1      0.14207       1.86800      18.50800     39.76900
  333    12     1      0.13203       0.04400      16.85400     39.45500
  334    12     1      0.14041       0.38800      14.47600     40.11200
  335    12     1      0.13203       2.56500      13.75800     41.08400
  336    12     1      0.14207       4.39300      15.40700     41.39500
  337    13     4     -0.12667      15.56800      11.39500      7.83200
  338    13     4     -0.06203      14.79000      12.26500      8.62600
  339    13     4     -0.14395      15.01100      10.20000      7.33700
  340    13     4     -0.14340      13.67300       9.87100      7.63200
  341    13     4     -0.14395      12.89400      10.73900      8.42100
  342    13     4     -0.12667      13.45000      11.93500      8.91600
  343    13     3     -0.13842      15.38900      13.55700      9.15300
  344    13     3     -0.13579      15.22100      14.76700      8.22000
  345    13     4     -0.06582      15.98400      14.66600      6.91200
  346    13     4     -0.13115      17.31700      15.12100      6.83200
  347    13     4     -0.14154      18.02800      15.02000      5.62100
  348    13     4     -0.13582      17.41000      14.46200      4.48500
  349    13     4     -0.14154      16.08100      14.00300      4.56200
  350    13     4     -0.13115      15.37000      14.10500      5.77400
  351    13     1      0.13502      17.95600      14.38400      3.55600
  352    13     1      0.13766      15.60600      13.56800      3.69500
  353    13     1      0.13742      14.35400      13.73800      5.83200
  354    13     1      0.13742      17.79900      15.54700      7.70000
  355    13     1      0.13766      19.04800      15.37100      5.56400
  356    13     2      0.09865      15.54700      15.67100      8.73700
  357    13     2      0.09865      14.16300      14.92000      8.00200
  358    13     2      0.09840      14.93100      13.77700     10.11800
  359    13     2      0.09840      16.44700      13.39600      9.36000
  360    13     1      0.14207      16.59000      11.65200      7.59000
  361    13     1      0.13203      15.60900       9.54100      6.72600
  362    13     1      0.14041      13.24600       8.95500      7.25100
  363    13     1      0.13203      11.86700      10.48900      8.64500
  364    13     1      0.14207      12.84400      12.59700      9.51600
  365    14     4     -0.12667      15.43800       6.25600     27.33700
  366    14     4     -0.06203      15.22200       6.56300     25.97700
  367    14     4     -0.14395      14.44700       5.58100     28.07700
  368    14     4     -0.14340      13.23800       5.20800     27.45800
  369    14     4     -0.14395      13.02100       5.51000     26.09900
  370    14     4     -0.12667      14.01200       6.18500     25.35900
  371    14     3     -0.13842      16.29300       7.28400     25.17900
  372    14     3     -0.13579      17.30600       6.35900     24.48400
  373    14     4     -0.06582      18.19800       5.57700     25.43000
  374    14     4     -0.13115      19.41300       6.13400     25.88100
  375    14     4     -0.14154      20.23800       5.41200     26.76600
  376    14     4     -0.13582      19.85000       4.13200     27.20500
  377    14     4     -0.14154      18.63500       3.57400     26.76000
  378    14     4     -0.13115      17.81100       4.29600     25.87500
  379    14     1      0.13502      20.48200       3.57800     27.88400
  380    14     1      0.13766      18.33100       2.59500     27.10000
  381    14     1      0.13742      16.87300       3.87000     25.54800
  382    14     1      0.13742      19.71600       7.11700     25.55200
  383    14     1      0.13766      21.16800       5.84200     27.10800
  384    14     2      0.09865      17.94200       6.94900     23.82400
  385    14     2      0.09865      16.77900       5.65900     23.83500
  386    14     2      0.09840      15.80100       7.90900     24.43200
  387    14     2      0.09840      16.81900       7.97600     25.83800
  388    14     1      0.14207      16.37100       6.52700     27.81200
  389    14     1      0.13203      14.61900       5.34500     29.11600
  390    14     1      0.14041      12.47900       4.69000     28.02500
  391    14     1      0.13203      12.09500       5.22100     25.62300
  392    14     1      0.14207      13.84000       6.40800     24.31700
  393    15     4     -0.12667      37.39800      16.74200     35.66000
  394    15     4     -0.06203      38.64600      16.76900     35.00300
  395    15     4     -0.14395      36.75800      15.51400     35.91600
  396    15     4     -0.14340      37.36500      14.30700     35.51800