LAMMPS data file of the system for full atom style

    4998 atoms
    5145 bonds
    9702 angles
   14994 dihedrals
     882 impropers

    4 atom types
    5 bond types
    8 angle types
    6 dihedral types
    1 improper types

    0.000000    50.000000 xlo xhi
    0.000000    50.000000 ylo yhi
    0.000000    50.000000 zlo zhi

 Masses 

    1       1.0080
    2       1.0080
    3      12.0110
    4      12.0110

 Pair Coeffs 

    1       0.0300       2.4200
    2       0.0300       2.5000
    3       0.0660       3.5000
    4       0.0700       3.5500

 Bond Coeffs 

    1     268.0000        1.5290
    2     317.0000        1.5100
    3     340.0000        1.0900
    4     367.0000        1.0800
    5     469.0000        1.4000

 Angle Coeffs 

    1      33.0000      107.8000
    2      35.0000      109.5000
    3      35.0000      120.0000
    4      37.5000      110.7000
    5      58.3500      112.7000
    6      63.0000      114.0000
    7      63.0000      120.0000
    8      70.0000      120.0000

 Dihedral Coeffs 

    1      -0.2500        0.0000       0.0000        0.0000
    2       0.0000        0.0000       0.0000        0.0000
    3       0.0000        0.0000       0.3000        0.0000
    4       0.0000        0.0000       0.4620        0.0000
    5       0.0000        7.2500       0.0000        0.0000
    6       0.8500       -0.2000       0.2000        0.0000

 Improper Coeffs 

    1       2.5000     -1     2

 Atoms 

    1     1     3     -0.06057      20.67500      16.88400     42.73300
    2     1     4     -0.07286      21.91100      16.12000     43.19900
    3     1     4     -0.13388      21.75900      14.92700     43.93800
    4     1     4     -0.13664      22.89000      14.21300     44.38100
    5     1     3     -0.10124      20.19600      17.93800     43.76500
    6     1     3     -0.17262      21.22800      19.06000     44.03800
    7     1     3     -0.19460      20.59000      20.25300     44.76600
    8     1     3     -0.17794      19.47900      20.91400     43.92500
    9     1     3     -0.17318      18.82000      19.94500     42.92300
   10     1     3     -0.16467      18.78300      18.50400     43.45700
   11     1     3     -0.23241      20.78900      17.42300     41.29300
   12     1     4     -0.13903      24.18200      14.68800     44.09000
   13     1     4     -0.13664      24.34200      15.88000     43.35800
   14     1     4     -0.13388      23.21200      16.59400     42.91500
   15     1     1      0.13264      25.05000      14.14100     44.43000
   16     1     1      0.13832      25.33300      16.24900     43.13700
   17     1     1      0.13347      23.35100      17.50900     42.36100
   18     1     1      0.13347      20.77300      14.55400     44.17100
   19     1     1      0.13832      22.76400      13.30000     44.94400
   20     1     2      0.10234      19.88700      16.12900     42.68500
   21     1     2      0.09380      20.08600      17.39400     44.70600
   22     1     2      0.10018      22.05600      18.66200     44.62600
   23     1     2      0.10018      21.66700      19.41800     43.10700
   24     1     2      0.09355      21.34800      20.99200     45.03000
   25     1     2      0.09355      20.17100      19.90200     45.71000
   26     1     2      0.08707      18.72500      21.32500     44.59800
   27     1     2      0.08707      19.88400      21.76700     43.37600
   28     1     2      0.08145      17.81500      20.28800     42.67700
   29     1     2      0.08145      19.37900      19.96200     41.98600
   30     1     2      0.08827      18.19200      18.49700     44.37400
   31     1     2      0.08827      18.24300      17.85600     42.76500
   32     1     2      0.08558      19.83400      17.80600     40.93300
   33     1     2      0.08558      21.09300      16.63100     40.61000
   34     1     2      0.08558      21.51700      18.22800     41.20100
   35     2     3     -0.06057      11.07600      13.62500     21.18800
   36     2     4     -0.07286      10.43100      12.60200     22.11800
   37     2     4     -0.13388      10.93900      12.42600     23.42300
   38     2     4     -0.13664      10.36000      11.48100     24.29300
   39     2     3     -0.10124      12.22400      13.02300     20.33500
   40     2     3     -0.17262      11.76500      11.90100     19.37100
   41     2     3     -0.19460      12.83300      11.59400     18.31000
   42     2     3     -0.17794      13.12000      12.81400     17.41200
   43     2     3     -0.17318      12.82400      14.15900     18.10500
   44     2     3     -0.16467      13.08600      14.09700     19.61800
   45     2     3     -0.23241      10.05600      14.44800     20.37400
   46     2     4     -0.13903       9.26900      10.70300     23.86300
   47     2     4     -0.13664       8.75900      10.86900     22.56100
   48     2     4     -0.13388       9.33800      11.81300     21.69200
   49     2     1      0.13264       8.82400       9.97800     24.53000
   50     2     1      0.13832       7.92400      10.27000     22.22800
   51     2     1      0.13347       8.94100      11.92400     20.69500
   52     2     1      0.13347      11.77900      13.01300     23.76300
   53     2     1      0.13832      10.75400      11.35400     25.29100
   54     2     2      0.10234      11.54400      14.34900     21.85700
   55     2     2      0.09380      12.89800      12.54800     21.05100
   56     2     2      0.10018      11.53200      11.00000     19.94100
   57     2     2      0.10018      10.84300      12.18100     18.86300
   58     2     2      0.09355      12.53100      10.74200     17.69800
   59     2     2      0.09355      13.75000      11.29100     18.81600
   60     2     2      0.08707      14.16400      12.78000     17.09400
   61     2     2      0.08707      12.52900      12.75200     16.49600
   62     2     2      0.08145      13.41400      14.95300     17.64600
   63     2     2      0.08145      11.78000      14.42800     17.93600
   64     2     2      0.08827      14.14100      13.86200     19.77000
   65     2     2      0.08827      12.94500      15.08000     20.06900
   66     2     2      0.08558      10.53500      15.27900     19.85700
   67     2     2      0.08558       9.29700      14.87400     21.02900
   68     2     2      0.08558       9.54000      13.85300     19.62200
   69     3     3     -0.06057      34.08600      31.37900     43.79300
   70     3     4     -0.07286      33.28100      32.58000     44.28200
   71     3     4     -0.13388      33.95300      33.72700     44.75500
   72     3     4     -0.13664      33.22500      34.84200     45.21600
   73     3     3     -0.10124      34.39600      30.36300     44.92400
   74     3     3     -0.17262      33.13400      29.71800     45.54900
   75     3     3     -0.19460      33.48700      28.47900     46.38700
   76     3     3     -0.17794      34.13400      27.37000     45.53300
   77     3     3     -0.17318      34.85500      27.91300     44.28200
   78     3     3     -0.16467      35.46000      29.30500     44.52600
   79     3     3     -0.23241      33.51900      30.73600     42.51200
   80     3     4     -0.13903      31.81800      34.81700     45.21000
   81     3     4     -0.13664      31.14000      33.67400     44.74500
   82     3     4     -0.13388      31.86800      32.56000     44.28400
   83     3     1      0.13264      31.25900      35.67200     45.56300
   84     3     1      0.13832      30.06000      33.65100     44.74200
   85     3     1      0.13347      31.33300      31.68900     43.93700
   86     3     1      0.13347      35.03300      33.75700     44.76900
   87     3     1      0.13832      33.74900      35.71600     45.57400
   88     3     2      0.10234      35.04800      31.79800     43.49100
   89     3     2      0.09380      34.86100      30.94900     45.72100
   90     3     2      0.10018      32.61400      30.45200     46.16600
   91     3     2      0.10018      32.42800      29.42200     44.77500
   92     3     2      0.09355      32.60000      28.09300     46.89200
   93     3     2      0.09355      34.17600      28.77800     47.17800
   94     3     2      0.08707      34.83400      26.81000     46.15400
   95     3     2      0.08707      33.37500      26.65200     45.21700
   96     3     2      0.08145      35.62600      27.21100     43.96200
   97     3     2      0.08145      34.14500      27.97400     43.45600
   98     3     2      0.08827      36.19200      29.22000     45.33000
   99     3     2      0.08827      36.03000      29.62900     43.65400
  100     3     2      0.08558      34.20700      30.00100     42.09600
  101     3     2      0.08558      33.35600      31.49200     41.74400
  102     3     2      0.08558      32.56800      30.23300     42.67900
  103     4     3     -0.06057      44.32900       3.21600     20.20900
  104     4     4     -0.07286      42.89100       2.70700     20.26300
  105     4     4     -0.13388      41.88100       3.52500     20.81300
  106     4     4     -0.13664      40.54900       3.06900     20.87600
  107     4     3     -0.10124      45.14300       2.85200     21.47800
  108     4     3     -0.17262      45.31000       1.32800     21.69800
  109     4     3     -0.19460      46.40400       1.02100     22.73300
  110     4     3     -0.17794      47.78800       1.52200     22.27300
  111     4     3     -0.17318      47.70700       2.71100     21.29500
  112     4     3     -0.16467      46.49400       3.61100     21.58100
  113     4     3     -0.23241      45.05100       2.88700     18.88600
  114     4     4     -0.13903      40.21800       1.79000     20.39200
  115     4     4     -0.13664      41.22200       0.96600     19.84700
  116     4     4     -0.13388      42.55200       1.42200     19.78400
  117     4     1      0.13264      39.19700       1.43900     20.44100
  118     4     1      0.13832      40.97100      -0.01800     19.47800
  119     4     1      0.13347      43.31100       0.77600     19.36900
  120     4     1      0.13347      42.12200       4.50800     21.19200
  121     4     1      0.13832      39.78200       3.70300     21.29700
  122     4     2      0.10234      44.23700       4.30300     20.21100
  123     4     2      0.09380      44.54700       3.21400     22.31900
  124     4     2      0.10018      44.36000       0.89700     22.01900
  125     4     2      0.10018      45.56600       0.82800     20.76600
  126     4     2      0.09355      46.44500      -0.04900     22.94200
  127     4     2      0.09355      46.13800       1.50200     23.67500
  128     4     2      0.08707      48.37200       1.80100     23.15200
  129     4     2      0.08707      48.34000       0.71100     21.79600
  130     4     2      0.08145      48.63100       3.29100     21.33400
  131     4     2      0.08145      47.63500       2.33300     20.27500
  132     4     2      0.08827      46.59900       4.00900     22.59200
  133     4     2      0.08827      46.50500       4.48400     20.92800
  134     4     2      0.08558      46.00400       3.40900     18.81000
  135     4     2      0.08558      44.44700       3.19700     18.03300
  136     4     2      0.08558      45.25300       1.82300     18.77000
  137     5     3     -0.06057      37.53300      34.87200     15.80700
  138     5     4     -0.07286      38.28200      35.19600     14.51700
  139     5     4     -0.13388      37.76600      36.17000     13.63500
  140     5     4     -0.13664      38.44100      36.47800     12.43800
  141     5     3     -0.10124      36.49800      33.73000     15.63000
  142     5     3     -0.17262      37.12600      32.37200     15.23000
  143     5     3     -0.19460      36.13700      31.21200     15.41900
  144     5     3     -0.17794      35.71500      31.04900     16.89400
  145     5     3     -0.17318      35.81400      32.36000     17.69900
  146     5     3     -0.16467      35.52200      33.59400     16.82900
  147     5     3     -0.23241      38.45700      34.69600     17.02900
  148     5     4     -0.13903      39.63600      35.81000     12.11000
  149     5     4     -0.13664      40.15400      34.83300     12.98200
  150     5     4     -0.13388      39.47900      34.52600     14.17900
  151     5     1      0.13264      40.15400      36.04500     11.19200
  152     5     1      0.13832      41.06900      34.31700     12.73100
  153     5     1      0.13347      39.88600      33.77000     14.83400
  154     5     1      0.13347      36.84700      36.68600     13.87300
  155     5     1      0.13832      38.04000      37.22600     11.77000
  156     5     2      0.10234      36.95600      35.77200     16.02400
  157     5     2      0.09380      35.87300      34.03400     14.78700
  158     5     2      0.10018      37.45900      32.41400     14.19100
  159     5     2      0.10018      38.01600      32.16800     15.82200
  160     5     2      0.09355      36.56400      30.27900     15.04700
  161     5     2      0.09355      35.25400      31.40300     14.80800
  162     5     2      0.08707      34.69400      30.66500     16.92800
  163     5     2      0.08707      36.33400      30.29200     17.37800
  164     5     2      0.08145      35.13700      32.32500     18.55400
  165     5     2      0.08145      36.81700      32.45100     18.11700
  166     5     2      0.08827      34.50300      33.50500     16.44800
  167     5     2      0.08827      35.52000      34.49800     17.44000
  168     5     2      0.08558      37.88700      34.64000     17.95600
  169     5     2      0.08558      39.13600      35.54300     17.12100
  170     5     2      0.08558      39.06800      33.79600     16.96900
  171     6     3     -0.06057      42.54300       8.29100     37.10400
  172     6     4     -0.07286      41.02500       8.28600     37.25700
  173     6     4     -0.13388      40.37600       9.40000     37.83200
  174     6     4     -0.13664      38.97600       9.41000     37.98500
  175     6     3     -0.10124      43.27300       7.70000     38.33900
  176     6     3     -0.17262      42.94500       6.21000     38.60600
  177     6     3     -0.19460      43.94200       5.57600     39.58900
  178     6     3     -0.17794      45.38100       5.58600     39.03500
  179     6     3     -0.17318      45.63100       6.71900     38.01900
  180     6     3     -0.16467      44.80100       7.97200     38.33900
  181     6     3     -0.23241      43.03000       7.72100     35.75700
  182     6     4     -0.13903      38.21300       8.30300     37.56800
  183     6     4     -0.13664      38.85300       7.18500     36.99900
  184     6     4     -0.13388      40.25300       7.17600     36.84500
  185     6     1      0.13264      37.13900       8.30900     37.68600
  186     6     1      0.13832      38.27000       6.33300     36.68100
  187     6     1      0.13347      40.72900       6.30900     36.41300
  188     6     1      0.13347      40.95000      10.25400     38.16000
  189     6     1      0.13832      38.48800      10.26700     38.42500
  190     6     2      0.10234      42.81300       9.34800     37.07200
  191     6     2      0.09380      42.88400       8.25200     39.19800
  192     6     2      0.10018      41.92900       6.12200     38.99400
  193     6     2      0.10018      42.96200       5.63800     37.68000
  194     6     2      0.09355      43.64300       4.55600     39.83500
  195     6     2      0.09355      43.90900       6.13400     40.52600
  196     6     2      0.08707      46.07900       5.67200     39.86900
  197     6     2      0.08707      45.60400       4.63000     38.55800
  198     6     2      0.08145      46.69400       6.96200     37.98600
  199     6     2      0.08145      45.37300       6.36800     37.01900
  200     6     2      0.08827      45.09600       8.33100     39.32700
  201     6     2      0.08827      45.05700       8.78300     37.65500
  202     6     2      0.08558      44.09500       7.89800     35.60900
  203     6     2      0.08558      42.50800       8.19800     34.92800
  204     6     2      0.08558      42.86500       6.64800     35.66900
  205     7     3     -0.06057      45.12100      38.45600     25.39800
  206     7     4     -0.07286      44.05100      37.43400     25.77300
  207     7     4     -0.13388      43.71300      37.24100     27.12900
  208     7     4     -0.13664      42.73200      36.29700     27.49300
  209     7     3     -0.10124      46.54600      37.84600     25.35600
  210     7     3     -0.17262      46.72100      36.73800     24.28800
  211     7     3     -0.19460      48.20300      36.42400     24.03200
  212     7     3     -0.17794      48.96400      37.64800     23.48100
  213     7     3     -0.17318      48.33000      38.99100     23.89500
  214     7     3     -0.16467      47.67100      38.91400     25.28100
  215     7     3     -0.23241      44.76200      39.29800     24.15700
  216     7     4     -0.13903      42.08400      35.53700     26.50200
  217     7     4     -0.13664      42.42000      35.71900     25.14700
  218     7     4     -0.13388      43.40000      36.66300     24.78400
  219     7     1      0.13264      41.33200      34.81300     26.78100
  220     7     1      0.13832      41.92600      35.13400     24.38500
  221     7     1      0.13347      43.65100      36.78700     23.74100
  222     7     1      0.13347      44.20600      37.81500     27.90000
  223     7     1      0.13832      42.47800      36.15800     28.53400
  224     7     2      0.10234      45.12200      39.16900     26.22500
  225     7     2      0.09380      46.68100      37.35600     26.32300
  226     7     2      0.10018      46.19700      35.83500     24.60700
  227     7     2      0.10018      46.26200      37.03300     23.34500
  228     7     2      0.09355      48.30500      35.58100     23.34700
  229     7     2      0.09355      48.65900      36.10600     24.97100
  230     7     2      0.08707      49.99900      37.60300     23.82300
  231     7     2      0.08707      49.00800      37.60000     22.39200
  232     7     2      0.08145      49.08200      39.78100     23.87200
  233     7     2      0.08145      47.57600      39.27400     23.15900
  234     7     2      0.08827      48.44400      38.66400     26.01000
  235     7     2      0.08827      47.30200      39.89500     25.58200
  236     7     2      0.08558      45.45700      40.12700     24.02200
  237     7     2      0.08558      43.76700      39.72900     24.26100
  238     7     2      0.08558      44.77000      38.71600     23.23700
  239     8     3     -0.06057      39.43000      22.92200     41.70700
  240     8     4     -0.07286      39.76300      21.87500     42.76600
  241     8     4     -0.13388      39.27300      22.03000     44.08100
  242     8     4     -0.13664      39.57500      21.07600     45.07200
  243     8     3     -0.10124      40.47800      24.06400     41.64100
  244     8     3     -0.17262      41.89700      23.58900     41.24200
  245     8     3     -0.19460      42.79700      24.76800     40.84000
  246     8     3     -0.17794      42.25200      25.51300     39.60500
  247     8     3     -0.17318      40.72400      25.38100     39.44300
  248     8     3     -0.16467      40.00900      25.28200     40.80000
  249     8     3     -0.23241      39.07400      22.31900     40.33300
  250     8     4     -0.13903      40.37300      19.96000     44.75700
  251     8     4     -0.13664      40.87100      19.80100     43.44900
  252     8     4     -0.13388      40.56800      20.75500     42.45800
  253     8     1      0.13264      40.60600      19.22800     45.51700
  254     8     1      0.13832      41.48600      18.94800     43.20600
  255     8     1      0.13347      40.96200      20.62200     41.46200
  256     8     1      0.13347      38.66300      22.88400     44.33600
  257     8     1      0.13832      39.19500      21.20200     46.07500
  258     8     2      0.10234      38.50400      23.38200     42.05600
  259     8     2      0.09380      40.56200      24.43900     42.66400
  260     8     2      0.10018      42.34700      23.04100     42.07100
  261     8     2      0.10018      41.85100      22.88900     40.41000
  262     8     2      0.09355      43.81600      24.42600     40.65000
  263     8     2      0.09355      42.86400      25.45900     41.68100
  264     8     2      0.08707      42.53000      26.56600     39.67700
  265     8     2      0.08707      42.73500      25.14000     38.70000
  266     8     2      0.08145      40.33600      26.22100     38.86600
  267     8     2      0.08145      40.50100      24.48800     38.85900
  268     8     2      0.08827      40.21300      26.19700     41.35900
  269     8     2      0.08827      38.92700      25.27000     40.66000
  270     8     2      0.08558      38.67600      23.07400     39.65600
  271     8     2      0.08558      38.31000      21.54900     40.43900
  272     8     2      0.08558      39.93100      21.86000     39.84000
  273     9     3     -0.06057      18.20900      33.62500     12.56700
  274     9     4     -0.07286      18.80700      33.77300     13.96300
  275     9     4     -0.13388      19.46800      34.96900     14.31700
  276     9     4     -0.13664      20.03100      35.12000     15.60000
  277     9     3     -0.10124      19.20800      33.02300     11.54500
  278     9     3     -0.17262      19.66800      31.58500     11.89200
  279     9     3     -0.19460      20.35100      30.90400     10.69600
  280     9     3     -0.17794      19.39400      30.75100      9.49600
  281     9     3     -0.17318      18.27100      31.80700      9.47900
  282     9     3     -0.16467      18.73300      33.14800     10.07200
  283     9     3     -0.23241      16.82200      32.95100     12.55800
  284     9     4     -0.13903      19.94100      34.07400     16.53700
  285     9     4     -0.13664      19.28900      32.87500     16.18900
  286     9     4     -0.13388      18.72600      32.72500     14.90700
  287     9     1      0.13264      20.37300      34.18900     17.52100
  288     9     1      0.13832      19.22200      32.07000     16.90500
  289     9     1      0.13347      18.23500      31.79800     14.65400
  290     9     1      0.13347      19.54700      35.77800     13.60600
  291     9     1      0.13832      20.53300      36.03900     15.86300
  292     9     2      0.10234      18.02100      34.64900     12.23800
  293     9     2      0.09380      20.10200      33.64900     11.61000
  294     9     2      0.10018      20.34700      31.61300     12.74500
  295     9     2      0.10018      18.82200      30.97300     12.20200
  296     9     2      0.09355      20.74800      29.93000     10.98500
  297     9     2      0.09355      21.21300      31.50400     10.39900
  298     9     2      0.08707      19.97300      30.80600      8.57300
  299     9     2      0.08707      18.94200      29.75700      9.50400
  300     9     2      0.08145      17.90400      31.94500      8.46100
  301     9     2      0.08145      17.42200      31.43900     10.05500
  302     9     2      0.08827      19.55900      33.52000      9.46500
  303     9     2      0.08827      17.94700      33.89800      9.97500
  304     9     2      0.08558      16.35100      33.01900     11.57800
  305     9     2      0.08558      16.15400      33.43900     13.26800
  306     9     2      0.08558      16.86500      31.89600     12.82500
  307    10     3     -0.06057       3.00200      31.94900     45.47000
  308    10     4     -0.07286       2.57400      33.20900     44.72400
  309    10     4     -0.13388       1.35100      33.83300     45.04900
  310    10     4     -0.13664       0.93700      34.99400     44.36700
  311    10     3     -0.10124       2.50300      30.64800     44.78800
  312    10     3     -0.17262       3.07100      30.43200     43.36300
  313    10     3     -0.19460       2.85100      28.99000     42.87800
  314    10     3     -0.17794       3.58000      27.96500     43.77000
  315    10     3     -0.17318       3.79600      28.46300     45.21300
  316    10     3     -0.16467       2.65900      29.38700     45.67900
  317    10     3     -0.23241       4.50000      31.92800     45.83800
  318    10     4     -0.13903       1.74400      35.53900     43.35000
  319    10     4     -0.13664       2.96400      34.92000     43.01600
  320    10     4     -0.13388       3.37700      33.75900     43.69800
  321    10     1      0.13264       1.42800      36.42900     42.82600
  322    10     1      0.13832       3.58300      35.33400     42.23400
  323    10     1      0.13347       4.31100      33.29300     43.42600
  324    10     1      0.13347       0.72000      33.42200     45.82500
  325    10     1      0.13832       0.00000      35.46600     44.62400
  326    10     2      0.10234       2.48200      32.00600     46.42800
  327    10     2      0.09380       1.42600      30.78000     44.66500
  328    10     2      0.10018       2.60500      31.13500     42.67100
  329    10     2      0.10018       4.13800      30.64700     43.33500
  330    10     2      0.09355       3.17400      28.88100     41.84100
  331    10     2      0.09355       1.78100      28.78000     42.88300
  332    10     2      0.08707       3.00900      27.03500     43.77800
  333    10     2      0.08707       4.55000      27.71400     43.33500
  334    10     2      0.08145       3.90100      27.61400     45.88900
  335    10     2      0.08145       4.74000      29.00700     45.26700
  336    10     2      0.08827       1.72800      28.81800     45.65200
  337    10     2      0.08827       2.79600      29.66000     46.72600
  338    10     2      0.08558       4.73300      31.10700     46.51500
  339    10     2      0.08558       4.78200      32.85000     46.34500
  340    10     2      0.08558       5.14600      31.82500     44.96800
  341    11     3     -0.06057      14.96200      26.58000     22.23000
  342    11     4     -0.07286      14.03600      26.76500     21.03100
  343    11     4     -0.13388      14.14000      27.92900     20.24000
  344    11     4     -0.13664      13.29000      28.11700     19.13200
  345    11     3     -0.10124      14.37000      27.16200     23.54100
  346    11     3     -0.17262      13.05800      26.47500     23.99300
  347    11     3     -0.19460      12.71000      26.82000     25.45000
  348    11     3     -0.17794      13.79000      26.32600     26.43200
  349    11     3     -0.17318      15.18600      26.20600     25.78800
  350    11     3     -0.16467      15.40600      27.26200     24.69300
  351    11     3     -0.23241      15.51000      25.14600     22.37300
  352    11     4     -0.13903      12.32600      27.14400     18.81000
  353    11     4     -0.13664      12.21200      25.98300     19.59800
  354    11     4     -0.13388      13.06200      25.79400     20.70500
  355    11     1      0.13264      11.67300      27.28800     17.96100
  356    11     1      0.13832      11.47000      25.23600     19.35500
  357    11     1      0.13347      12.95800      24.90200     21.30300
  358    11     1      0.13347      14.87300      28.68500     20.47900
  359    11     1      0.13832      13.37800      29.01100     18.53100
  360    11     2      0.10234      15.83700      27.19000     21.99800
  361    11     2      0.09380      14.10400      28.19500     23.30600
  362    11     2      0.10018      12.24200      26.77300     23.33300
  363    11     2      0.10018      13.13600      25.39300     23.90300
  364    11     2      0.09355      11.73800      26.40400     25.72100
  365    11     2      0.09355      12.60700      27.90300     25.53700
  366    11     2      0.08707      13.83000      27.00600     27.28500
  367    11     2      0.08707      13.50700      25.35400     26.84100
  368    11     2      0.08145      15.95900      26.28100     26.55400
  369    11     2      0.08145      15.29500      25.21300     25.35000
  370    11     2      0.08827      15.32900      28.24800     25.15300
  371    11     2      0.08827      16.42700      27.20600     24.31000
  372    11     2      0.08558      16.29600      25.09100     23.12500
  373    11     2      0.08558      15.94400      24.80700     21.43200
  374    11     2      0.08558      14.74100      24.42800     22.65300
  375    12     3     -0.06057      26.06700      17.61000     18.23000
  376    12     4     -0.07286      24.57400      17.89500     18.09400
  377    12     4     -0.13388      23.89400      18.56900     19.13100
  378    12     4     -0.13664      22.51500      18.83600     19.02400
  379    12     3     -0.10124      26.35900      16.24300     18.90400
  380    12     3     -0.17262      25.83300      15.02600     18.10300
  381    12     3     -0.19460      26.44800      13.71000     18.60300
  382    12     3     -0.17794      27.98000      13.68500     18.42700
  383    12     3     -0.17318      28.61100      15.09200     18.42300
  384    12     3     -0.16467      27.84300      16.07000     19.32700
  385    12     3     -0.23241      26.86300      17.85000     16.93100
  386    12     4     -0.13903      21.80400      18.42600     17.88000
  387    12     4     -0.13664      22.47400      17.74700     16.84400
  388    12     4     -0.13388      23.85300      17.48200     16.95100
  389    12     1      0.13264      20.74600      18.63000     17.79800
  390    12     1      0.13832      21.93000      17.42900     15.96800
  391    12     1      0.13347      24.35100      16.95500     16.15200
  392    12     1      0.13347      24.42700      18.88600     20.01500
  393    12     1      0.13832      22.00300      19.35400     19.82100
  394    12     2      0.10234      26.43100      18.37100     18.92200
  395    12     2      0.09380      25.79500      16.25500     19.83900
  396    12     2      0.10018      24.74600      14.98200     18.17400