LAMMPS data file of the system for full atom style

    4982 atoms
    4876 bonds
    9540 angles
   13356 dihedrals

    2 atom types
    2 bond types
    3 angle types
    2 dihedral types

    0.000000    50.000000 xlo xhi
    0.000000    50.000000 ylo yhi
    0.000000    50.000000 zlo zhi

 Masses 

    1       1.0080
    2      12.0110

 Pair Coeffs 

    1       0.0300       2.5000
    2       0.0660       3.5000

 Bond Coeffs 

    1     268.0000        1.5290
    2     340.0000        1.0900

 Angle Coeffs 

    1      33.0000      107.8000
    2      37.5000      110.7000
    3      58.3500      112.7000

 Dihedral Coeffs 

    1       0.0000        0.0000       0.3000        0.0000
    2       0.8500       -0.2000       0.2000        0.0000

 Atoms 

    1     1     2     -0.17856      34.38000       9.32000     33.35900
    2     1     2     -0.17514      34.00300       8.52200     32.10000
    3     1     2     -0.18390      34.83300       8.41200     34.51200
    4     1     2     -0.19036      35.21500       9.21100     35.76700
    5     1     2     -0.17955      35.77100       8.34100     36.90800
    6     1     2     -0.17915      34.72600       7.40100     37.53200
    7     1     2     -0.18671      35.28400       6.63300     38.74100
    8     1     2     -0.19030      34.30000       5.60600     39.32400
    9     1     2     -0.24351      33.05900       6.24100     39.96900
   10     1     2     -0.18107      33.44400       9.39100     30.95800
   11     1     2     -0.17327      34.41900      10.44800     30.39800
   12     1     2     -0.16218      35.74400       9.89100     29.84500
   13     1     2     -0.16214      35.62500       8.85600     28.70800
   14     1     2     -0.16472      35.08800       9.40800     27.37300
   15     1     2     -0.23241      33.56600       9.27800     27.20400
   16     1     1      0.07910      33.01700       9.86700     27.93600
   17     1     1      0.07910      33.25800       9.62400     26.21600
   18     1     1      0.07910      33.24500       8.24100     27.30300
   19     1     1      0.08015      35.39700      10.44500     27.23700
   20     1     1      0.08015      35.55700       8.85300     26.56000
   21     1     1      0.08146      35.05000       7.98600     29.02800
   22     1     1      0.08146      36.63000       8.47400     28.52300
   23     1     1      0.08419      36.35900      10.72500     29.50300
   24     1     1      0.08419      36.30800       9.44500     30.66600
   25     1     1      0.08634      34.64300      11.17800     31.17600
   26     1     1      0.08634      33.91900      11.02400     29.62100
   27     1     1      0.08450      33.11500       8.73900     30.14800
   28     1     1      0.08450      32.54000       9.89500     31.30400
   29     1     1      0.08961      33.24800       7.78100     32.36400
   30     1     1      0.08961      34.86300       7.95100     31.74800
   31     1     1      0.09236      35.18000      10.02300     33.12300
   32     1     1      0.09236      33.52700       9.91900     33.68000
   33     1     1      0.09370      34.03300       7.71000     34.74800
   34     1     1      0.09370      35.68300       7.81100     34.18800
   35     1     1      0.08669      34.35600       9.78200     36.12300
   36     1     1      0.08669      35.97300       9.94900     35.49800
   37     1     1      0.09088      36.15900       9.00200     37.68600
   38     1     1      0.09088      36.62600       7.76700     36.55100
   39     1     1      0.09595      34.37700       6.68800     36.78500
   40     1     1      0.09595      33.85500       7.98300     37.83400
   41     1     1      0.09275      35.59200       7.33200     39.52000
   42     1     1      0.09275      36.19200       6.10700     38.43800
   43     1     1      0.08829      33.99400       4.90000     38.55000
   44     1     1      0.08829      34.81800       5.01300     40.07900
   45     1     1      0.08398      32.43100       5.47900     40.43200
   46     1     1      0.08398      32.44400       6.76200     39.23500
   47     1     1      0.08397      33.33500       6.95500     40.74400
   48     2     2     -0.17856      26.08000      23.59800      8.94900
   49     2     2     -0.17514      26.70000      24.95500      9.31900
   50     2     2     -0.18390      26.88000      22.86800      7.86000
   51     2     2     -0.19036      26.26300      21.50800      7.49600
   52     2     2     -0.17955      27.09400      20.70400      6.48200
   53     2     2     -0.17915      27.13300      21.33200      5.07900
   54     2     2     -0.18671      27.87400      20.44500      4.06500
   55     2     2     -0.19030      28.02300      21.09100      2.67800
   56     2     2     -0.24351      26.69000      21.27500      1.93800
   57     2     2     -0.18107      25.86800      25.76300     10.33200
   58     2     2     -0.17327      25.68500      25.09800     11.71200
   59     2     2     -0.16218      26.99000      24.77000     12.46000
   60     2     2     -0.16214      27.93000      25.96000     12.74300
   61     2     2     -0.16472      27.39400      26.99300     13.75400
   62     2     2     -0.23241      26.63800      28.16700     13.11400
   63     2     1      0.07910      25.73100      27.84800     12.60700
   64     2     1      0.07910      26.34400      28.89400     13.87300
   65     2     1      0.07910      27.26100      28.68800     12.38600
   66     2     1      0.08015      26.77000      26.50400     14.50400
   67     2     1      0.08015      28.24100      27.40700     14.30200
   68     2     1      0.08146      28.23600      26.44700     11.81600
   69     2     1      0.08146      28.84900      25.54400     13.15700
   70     2     1      0.08419      26.74100      24.28400     13.40500
   71     2     1      0.08419      27.54100      24.01700     11.89500
   72     2     1      0.08634      25.10900      24.18000     11.59500
   73     2     1      0.08634      25.06100      25.73400     12.33900
   74     2     1      0.08450      26.32700      26.74300     10.46200
   75     2     1      0.08450      24.88400      25.96300      9.90500
   76     2     1      0.08961      26.80800      25.55300      8.41300
   77     2     1      0.08961      27.71300      24.81300      9.69700
   78     2     1      0.09236      26.02500      22.96500      9.83600
   79     2     1      0.09236      25.05400      23.74600      8.61000
   80     2     1      0.09370      26.93500      23.50000      6.97300
   81     2     1      0.09370      27.90700      22.72400      8.19900
   82     2     1      0.08669      25.25000      21.64800      7.11500
   83     2     1      0.08669      26.16000      20.91300      8.40500
   84     2     1      0.09088      26.66700      19.70100      6.40700
   85     2     1      0.09088      28.10800      20.56900      6.86100
   86     2     1      0.09595      27.61900      22.30700      5.12300
   87     2     1      0.09595      26.11300      21.51000      4.73800
   88     2     1      0.09275      27.36900      19.48200      3.97200
   89     2     1      0.09275      28.87100      20.22300      4.45200
   90     2     1      0.08829      28.53300      22.05200      2.76600
   91     2     1      0.08829      28.67500      20.46300      2.06800
   92     2     1      0.08398      26.85600      21.66500      0.93400
   93     2     1      0.08398      26.03600      21.97800      2.45300
   94     2     1      0.08397      26.15600      20.33000      1.84000
   95     3     2     -0.17856      24.06100      35.55300      6.51600
   96     3     2     -0.17514      25.06000      36.62200      6.04600
   97     3     2     -0.18390      24.14100      35.30400      8.03000
   98     3     2     -0.19036      23.13600      34.23900      8.49900
   99     3     2     -0.17955      23.11700      34.03700     10.02300
  100     3     2     -0.17915      24.40600      33.41100     10.58000
  101     3     2     -0.18671      24.30800      33.11800     12.08600
  102     3     2     -0.19030      25.61700      32.59000     12.69600
  103     3     2     -0.24351      26.01500      31.19700     12.18500
  104     3     2     -0.18107      25.08300      36.82300      4.52000
  105     3     2     -0.17327      23.75900      37.31700      3.90200
  106     3     2     -0.16218      23.23200      38.65300      4.45800
  107     3     2     -0.16214      24.17800      39.86400      4.32700
  108     3     2     -0.16472      24.42300      40.35100      2.88500
  109     3     2     -0.23241      25.65800      39.73300      2.21300
  110     3     1      0.07910      25.56200      38.65700      2.08100
  111     3     1      0.07910      25.81500      40.16600      1.22400
  112     3     1      0.07910      26.56000      39.91700      2.79800
  113     3     1      0.08015      23.53600      40.18800      2.27200
  114     3     1      0.08015      24.56900      41.43200      2.90900
  115     3     1      0.08146      25.12300      39.68200      4.84200
  116     3     1      0.08146      23.71600      40.68600      4.87500
  117     3     1      0.08419      22.28600      38.88800      3.97000
  118     3     1      0.08419      22.97900      38.52000      5.51100
  119     3     1      0.08634      22.99200      36.55400      4.03900
  120     3     1      0.08634      23.87200      37.39700      2.82100
  121     3     1      0.08450      25.88100      37.52300      4.26900
  122     3     1      0.08450      25.36600      35.88400      4.04100
  123     3     1      0.08961      26.06300      36.33400      6.36700
  124     3     1      0.08961      24.85600      37.57000      6.54500
  125     3     1      0.09236      23.04600      35.85900      6.25800
  126     3     1      0.09236      24.24800      34.62000      5.98300
  127     3     1      0.09370      25.15500      34.99700      8.28800
  128     3     1      0.09370      23.95700      36.23800      8.56100
  129     3     1      0.08669      23.34100      33.28800      8.00300
  130     3     1      0.08669      22.13500      34.53400      8.17900
  131     3     1      0.09088      22.27500      33.38900     10.27300
  132     3     1      0.09088      22.91800      34.98900     10.51900
  133     3     1      0.09595      25.25000      34.07900     10.40000
  134     3     1      0.09595      24.62000      32.49000     10.03700
  135     3     1      0.09275      23.50000      32.41100     12.27700
  136     3     1      0.09275      24.03100      34.03700     12.60700
  137     3     1      0.08829      26.42700      33.29700     12.51100
  138     3     1      0.08829      25.50400      32.54200     13.78000
  139     3     1      0.08398      26.90600      30.83600     12.70100
  140     3     1      0.08398      26.24300      31.20800     11.11900
  141     3     1      0.08397      25.22100      30.47000     12.35200
  142     4     2     -0.17856      18.29000      23.70300     45.49300
  143     4     2     -0.17514      18.31400      23.41600     43.98300
  144     4     2     -0.18390      19.41700      24.65300     45.92500
  145     4     2     -0.19036      19.38800      24.94200     47.43300
  146     4     2     -0.17955      20.43900      25.97000     47.88500
  147     4     2     -0.17915      21.88700      25.46500     47.76700
  148     4     2     -0.18671      22.90200      26.47100     48.33300
  149     4     2     -0.19030      24.36600      26.04500     48.13500
  150     4     2     -0.24351      24.75700      24.79800     48.94100
  151     4     2     -0.18107      17.26300      22.38500     43.52900
  152     4     2     -0.17327      15.79500      22.79600     43.76200
  153     4     2     -0.16218      15.36500      24.10900     43.08200
  154     4     2     -0.16214      15.52700      24.16600     41.55000
  155     4     2     -0.16472      14.59000      23.23400     40.75600
  156     4     2     -0.23241      15.19300      21.85700     40.43800
  157     4     1      0.07910      15.39300      21.27600     41.33500
  158     4     1      0.07910      14.51100      21.27200     39.82000
  159     4     1      0.07910      16.13100      21.95400     39.88900
  160     4     1      0.08015      13.63700      23.12000     41.27500
  161     4     1      0.08015      14.35200      23.71500     39.80700
  162     4     1      0.08146      16.56700      24.01100     41.25900
  163     4     1      0.08146      15.30300      25.19000     41.24700
  164     4     1      0.08419      14.32300      24.31100     43.33600
  165     4     1      0.08419      15.92500      24.93500     43.52400
  166     4     1      0.08634      15.61200      22.88000     44.83400
  167     4     1      0.08634      15.13900      21.99000     43.43700
  168     4     1      0.08450      17.41400      22.17200     42.47000
  169     4     1      0.08450      17.44900      21.43900     44.04000
  170     4     1      0.08961      19.30000      23.04000     43.70900
  171     4     1      0.08961      18.19100      24.34500     43.42400
  172     4     1      0.09236      17.32900      24.13900     45.76900
  173     4     1      0.09236      18.37300      22.76400     46.04300
  174     4     1      0.09370      20.37700      24.21500     45.64900
  175     4     1      0.09370      19.33500      25.58800     45.37100
  176     4     1      0.08669      19.51300      24.01500     47.99500
  177     4     1      0.08669      18.40000      25.32200     47.70000
  178     4     1      0.09088      20.24100      26.22900     48.92700
  179     4     1      0.09088      20.31800      26.89500     47.32000
  180     4     1      0.09595      22.12600      25.26700     46.72100
  181     4     1      0.09595      21.97800      24.51400     48.29100
  182     4     1      0.09275      22.70800      26.64300     49.39300
  183     4     1      0.09275      22.75500      27.43600     47.84300
  184     4     1      0.08829      24.56600      25.87800     47.07500
  185     4     1      0.08829      25.01500      26.87000     48.43500
  186     4     1      0.08398      25.82000      24.58100     48.82500
  187     4     1      0.08398      24.21100      23.91500     48.60900
  188     4     1      0.08397      24.56300      24.93400     50.00400
  189     5     2     -0.17856      40.13100      20.96200     42.63900
  190     5     2     -0.17514      41.45300      20.17900     42.60600
  191     5     2     -0.18390      40.18500      22.16000     43.59900
  192     5     2     -0.19036      38.86500      22.94500     43.62600
  193     5     2     -0.17955      38.91700      24.21000     44.49900
  194     5     2     -0.17915      39.05100      23.91800     46.00300
  195     5     2     -0.18671      38.98400      25.19700     46.85300
  196     5     2     -0.19030      39.22200      24.95300     48.35200
  197     5     2     -0.24351      38.11100      24.13400     49.02500
  198     5     2     -0.18107      41.40200      18.91000     41.73500
  199     5     2     -0.17327      41.12600      19.15200     40.23600
  200     5     2     -0.16218      42.13500      20.06900     39.52200
  201     5     2     -0.16214      43.61000      19.61700     39.56000
  202     5     2     -0.16472      43.92400      18.33900     38.75600
  203     5     2     -0.23241      43.85000      17.04400     39.57900
  204     5     1      0.07910      42.84600      16.84500     39.94800
  205     5     1      0.07910      44.14700      16.18600     38.97400
  206     5     1      0.07910      44.51900      17.08400     40.44000
  207     5     1      0.08015      43.27600      18.27000     37.88100
  208     5     1      0.08015      44.93800      18.42200     38.36500
  209     5     1      0.08146      43.96700      19.52900     40.58600
  210     5     1      0.08146      44.19800      20.42700     39.12800
  211     5     1      0.08419      41.82800      20.18800     38.48200
  212     5     1      0.08419      42.06600      21.07000     39.95000
  213     5     1      0.08634      40.12700      19.57200     40.11900
  214     5     1      0.08634      41.08000      18.19400     39.71800
  215     5     1      0.08450      42.34300      18.36900     41.84500
  216     5     1      0.08450      40.63900      18.23800     42.12900
  217     5     1      0.08961      41.71500      19.88300     43.62300
  218     5     1      0.08961      42.26400      20.82800     42.27300
  219     5     1      0.09236      39.88900      21.31800     41.63700
  220     5     1      0.09236      39.32000      20.29500     42.93400
  221     5     1      0.09370      40.42600      21.80300     44.60100
  222     5     1      0.09370      40.99900      22.82300     43.30500
  223     5     1      0.08669      38.05200      22.29800     43.96200
  224     5     1      0.08669      38.61000      23.24100     42.60800
  225     5     1      0.09088      38.00000      24.78000     44.33300
  226     5     1      0.09088      39.73200      24.85400     44.16800
  227     5     1      0.09595      39.99600      23.40900     46.19800
  228     5     1      0.09595      38.26200      23.23100     46.30700
  229     5     1      0.09275      38.02300      25.69300     46.70700
  230     5     1      0.09275      39.73900      25.90000     46.49400
  231     5     1      0.08829      40.18600      24.46200     48.50200
  232     5     1      0.08829      39.29700      25.91700     48.85600
  233     5     1      0.08398      38.28700      24.05200     50.09800
  234     5     1      0.08398      38.06000      23.12000     48.62900
  235     5     1      0.08397      37.13500      24.59800     48.88600
  236     6     2     -0.17856      28.93100      31.96600     31.76800
  237     6     2     -0.17514      27.82000      30.92100     31.96300
  238     6     2     -0.18390      29.34200      32.11300     30.29600
  239     6     2     -0.19036      30.44800      33.16200     30.10200
  240     6     2     -0.17955      30.81300      33.40900     28.62800
  241     6     2     -0.17915      31.50000      32.21000     27.95300
  242     6     2     -0.18671      31.95400      32.53100     26.51900
  243     6     2     -0.19030      32.54900      31.32300     25.77800
  244     6     2     -0.24351      33.87900      30.83300     26.36900
  245     6     2     -0.18107      27.45500      30.67100     33.43800
  246     6     2     -0.17327      26.89300      31.89300     34.19400
  247     6     2     -0.16218      25.62400      32.51500     33.58300
  248     6     2     -0.16214      24.40900      31.57600     33.43900
  249     6     2     -0.16472      23.76900      31.12300     34.76600
  250     6     2     -0.23241      24.31500      29.79200     35.30600
  251     6     1      0.07910      25.37000      29.85300     35.56500
  252     6     1      0.07910      23.77800      29.49300     36.20700
  253     6     1      0.07910      24.19800      28.99200     34.57400
  254     6     1      0.08015      23.86300      31.90500     35.52100
  255     6     1      0.08015      22.69800      30.99700     34.60500
  256     6     1      0.08146      24.64800      30.71800     32.80900
  257     6     1      0.08146      23.65000      32.12800     32.88200
  258     6     1      0.08419      25.33400      33.38000     34.18200
  259     6     1      0.08419      25.86900      32.92300     32.60200
  260     6     1      0.08634      27.66400      32.66100     34.25700
  261     6     1      0.08634      26.69700      31.61800     35.23000
  262     6     1      0.08450      26.73500      29.85300     33.48900
  263     6     1      0.08450      28.33800      30.30600     33.96700
  264     6     1      0.08961      28.14400      29.97500     31.52800
  265     6     1      0.08961      26.93100      31.21100     31.40300
  266     6     1      0.09236      28.59600      32.93400     32.14400
  267     6     1      0.09236      29.80100      31.68800     32.36400
  268     6     1      0.09370      29.67800      31.14500     29.92100
  269     6     1      0.09370      28.47000      32.38700     29.70100
  270     6     1      0.08669      31.34000      32.87200     30.66000
  271     6     1      0.08669      30.11800      34.10700     30.53600
  272     6     1      0.09088      31.48300      34.27100     28.58000
  273     6     1      0.09088      29.92100      33.69300     28.06900
  274     6     1      0.09595      30.82000      31.35800     27.93000
  275     6     1      0.09595      32.35800      31.90400     28.55200
  276     6     1      0.09275      32.67500      33.35000     26.53000
  277     6     1      0.09275      31.09600      32.89600     25.95100
  278     6     1      0.08829      31.82900      30.50300     25.76000
  279     6     1      0.08829      32.71300      31.59800     24.73500
  280     6     1      0.08398      34.29700      30.02600     25.76600
  281     6     1      0.08398      33.75400      30.44700     27.38100
  282     6     1      0.08397      34.61800      31.63400     26.40400
  283     7     2     -0.17856      24.03900      10.62400     18.31000
  284     7     2     -0.17514      25.56600      10.45200     18.31800
  285     7     2     -0.18390      23.60700      11.98200     17.73700
  286     7     2     -0.19036      22.07900      12.15000     17.72500
  287     7     2     -0.17955      21.60700      13.45600     17.06400
  288     7     2     -0.17915      21.98000      14.71900     17.85700
  289     7     2     -0.18671      21.39400      15.99400     17.22900
  290     7     2     -0.19030      21.83500      17.28700     17.93600
  291     7     2     -0.24351      21.28700      17.42300     19.36400
  292     7     2     -0.18107      26.04100       9.14600     18.98200
  293     7     2     -0.17327      25.56800       7.84800     18.29500
  294     7     2     -0.16218      25.97700       7.70000     16.81800
  295     7     2     -0.16214      27.49100       7.74500     16.52500
  296     7     2     -0.16472      28.29800       6.54500     17.05900
  297     7     2     -0.23241      28.89700       6.76200     18.45700
  298     7     1      0.07910      28.13300       6.88500     19.22100
  299     7     1      0.07910      29.51000       5.90700     18.75000
  300     7     1      0.07910      29.53600       7.64500     18.48000
  301     7     1      0.08015      27.68900       5.64000     17.04400
  302     7     1      0.08015      29.12400       6.35500     16.37300
  303     7     1      0.08146      27.92800       8.68700     16.85900
  304     7     1      0.08146      27.60100       7.75500     15.44000
  305     7     1      0.08419      25.56900       6.76500     16.43300
  306     7     1      0.08419      25.48600       8.48100     16.23600
  307     7     1      0.08634      24.48100       7.78000     18.36600
  308     7     1      0.08634      25.93100       6.98900     18.85700
  309     7     1      0.08450      27.13100       9.15200     19.03000
  310     7     1      0.08450      25.71000       9.13400     20.02200
  311     7     1      0.08961      26.01400      11.28900     18.85500
  312     7     1      0.08961      25.95500      10.51600     17.30100
  313     7     1      0.09236      23.58200       9.82700     17.72300
  314     7     1      0.09236      23.65500      10.51800     19.32600
  315     7     1      0.09370      24.06300      12.77800     18.32600
  316     7     1      0.09370      23.99500      12.08800     16.72400
  317     7     1      0.08669      21.68800      12.08800     18.74200
  318     7     1      0.08669      21.63700      11.31200     17.18400
  319     7     1      0.09088      20.52100      13.41400     16.95900
  320     7     1      0.09088      22.00200      13.51900     16.04900
  321     7     1      0.09595      23.06500      14.81500     17.91300
  322     7     1      0.09595      21.62500      14.61600     18.88200
  323     7     1      0.09275      20.30500      15.93600     17.21100
  324     7     1      0.09275      21.70700      16.05000     16.18400
  325     7     1      0.08829      22.92400      17.35100     17.95000
  326     7     1      0.08829      21.49300      18.14100     17.34900
  327     7     1      0.08398      21.56400      18.38700     19.79300
  328     7     1      0.08398      21.68100      16.65100     20.02400
  329     7     1      0.08397      20.19900      17.35700     19.38000
  330     8     2     -0.17856       5.91400      15.36500      8.14400
  331     8     2     -0.17514       6.34700      16.75400      8.63800
  332     8     2     -0.18390       6.88800      14.26000      8.58100
  333     8     2     -0.19036       6.45000      12.87100      8.09200
  334     8     2     -0.17955       7.34700      11.72700      8.59700
  335     8     2     -0.17915       8.76700      11.75100      8.00800
  336     8     2     -0.18671       9.59700      10.53200      8.44400
  337     8     2     -0.19030      11.05600      10.57800      7.96000
  338     8     2     -0.24351      11.20200      10.46200      6.43600
  339     8     2     -0.18107       5.45200      17.90100      8.13100
  340     8     2     -0.17327       3.97900      17.83500      8.58500
  341     8     2     -0.16218       3.76200      17.82200     10.10900
  342     8     2     -0.16214       4.33800      19.02300     10.88800
  343     8     2     -0.16472       3.64500      20.37300     10.61600
  344     8     2     -0.23241       4.30100      21.20400      9.50300
  345     8     1      0.07910       4.24300      20.71500      8.53300
  346     8     1      0.07910       3.80900      22.17200      9.40500
  347     8     1      0.07910       5.35400      21.39200      9.71800
  348     8     1      0.08015       2.58600      20.22200     10.40400
  349     8     1      0.08015       3.67900      20.96500     11.53200
  350     8     1      0.08146       5.41600      19.10300     10.74500
  351     8     1      0.08146       4.21300      18.79900     11.94800
  352     8     1      0.08419       2.69200      17.74900     10.31100
  353     8     1      0.08419       4.18700      16.90400     10.51800
  354     8     1      0.08634       3.51100      16.94800      8.15700
  355     8     1      0.08634       3.43000      18.66900      8.15000
  356     8     1      0.08450       5.88500      18.85100      8.44700
  357     8     1      0.08450       5.48300      17.92100      7.04000
  358     8     1      0.08961       7.36800      16.94600      8.30400
  359     8     1      0.08961       6.39000      16.76800      9.72700
  360     8     1      0.09236       4.91800      15.13300      8.52400
  361     8     1      0.09236       5.83600      15.37300      7.05600
  362     8     1      0.09370       7.88300      14.49100      8.20000
  363     8     1      0.09370       6.96800      14.25600      9.66800
  364     8     1      0.08669       6.40900      12.85400      7.00100
  365     8     1      0.08669       5.43000      12.68200      8.43200
  366     8     1      0.09088       6.87300      10.77900      8.33500
  367     8     1      0.09088       7.39100      11.74700      9.68600
  368     8     1      0.09595       9.28100      12.66200      8.31700
  369     8     1      0.09595       8.70400      11.78500      6.92100
  370     8     1      0.09275       9.12200       9.61300      8.09800
  371     8     1      0.09275       9.59700      10.47600      9.53400
  372     8     1      0.08829      11.53700      11.49400      8.30900
  373     8     1      0.08829      11.60500       9.75700      8.42500
  374     8     1      0.08398      12.25400      10.42400      6.15000
  375     8     1      0.08398      10.76000      11.31500      5.92200
  376     8     1      0.08397      10.72600       9.55700      6.05800
  377     9     2     -0.17856      36.29000      15.03200     14.91200
  378     9     2     -0.17514      36.50200      15.61200     16.32000
  379     9     2     -0.18390      35.09900      14.06400     14.85300
  380     9     2     -0.19036      34.88500      13.49000     13.44300
  381     9     2     -0.17955      33.63900      12.59500     13.32400
  382     9     2     -0.17915      33.74900      11.27500     14.10400
  383     9     2     -0.18671      32.53800      10.35800     13.87000
  384     9     2     -0.19030      32.56500       9.07500     14.71800
  385     9     2     -0.24351      33.70000       8.11200     14.34000
  386     9     2     -0.18107      37.75000      16.50600     16.44300
  387     9     2     -0.17327      37.74000      17.77300     15.56300
  388     9     2     -0.16218      36.55700      18.72900     15.80300
  389     9     2     -0.16214      36.40100      19.27100     17.23800
  390     9     2     -0.16472      37.51200      20.23700     17.69800
  391     9     2     -0.23241      38.67300      19.55300     18.43600
  392     9     1      0.07910      39.21800      18.86100     17.79900
  393     9     1      0.07910      39.39000      20.29400     18.79400
  394     9     1      0.07910      38.31700      18.99700     19.30400
  395     9     1      0.08015      37.88700      20.81600     16.85400
  396     9     1      0.08015      37.07200      20.96400     18.38100
  397     9     1      0.08146      36.27200      18.45800     17.95300
  398     9     1      0.08146      35.45900      19.82000     17.26700
  399     9     1      0.08419      36.64100      19.57100     15.11300
  400     9     1      0.08419      35.63300      18.22400     15.51800
  401     9     1      0.08634      37.74800      17.48100     14.51300
  402     9     1      0.08634      38.67500      18.31500     15.70100
  403     9     1      0.08450      37.87600      16.79200     17.48700
  404     9     1      0.08450      38.63500      15.91600     16.19900
  405     9     1      0.08961      36.60100      14.79000     17.03000