LAMMPS data file of the system for full atom style

    4992 atoms
    4992 bonds
    9600 angles
   14016 dihedrals
     384 impropers

    4 atom types
    5 bond types
    8 angle types
    6 dihedral types
    1 improper types

    0.000000    50.000000 xlo xhi
    0.000000    50.000000 ylo yhi
    0.000000    50.000000 zlo zhi

 Masses 

    1       1.0080
    2       1.0080
    3      12.0110
    4      12.0110

 Pair Coeffs 

    1       0.0300       2.4200
    2       0.0300       2.5000
    3       0.0660       3.5000
    4       0.0700       3.5500

 Bond Coeffs 

    1     268.0000        1.5290
    2     317.0000        1.5100
    3     340.0000        1.0900
    4     367.0000        1.0800
    5     469.0000        1.4000

 Angle Coeffs 

    1      33.0000      107.8000
    2      35.0000      109.5000
    3      35.0000      120.0000
    4      37.5000      110.7000
    5      58.3500      112.7000
    6      63.0000      114.0000
    7      63.0000      120.0000
    8      70.0000      120.0000

 Dihedral Coeffs 

    1      -0.2500        0.0000       0.0000        0.0000
    2       0.0000        0.0000       0.0000        0.0000
    3       0.0000        0.0000       0.3000        0.0000
    4       0.0000        0.0000       0.4620        0.0000
    5       0.0000        7.2500       0.0000        0.0000
    6       0.8500       -0.2000       0.2000        0.0000

 Improper Coeffs 

    1       2.5000     -1     2

 Atoms 

    1     1     3     -0.10142       9.59400       7.76600     43.64100
    2     1     3     -0.13717       8.40000       7.09600     42.91700
    3     1     3     -0.17258       9.63500       9.30300     43.44300
    4     1     3     -0.17588       8.42700      10.08100     44.00100
    5     1     3     -0.19405       8.28900      10.00800     45.53100
    6     1     3     -0.19593       7.16300      10.91000     46.05700
    7     1     3     -0.18562       7.02800      10.84100     47.58700
    8     1     3     -0.17283       5.82800      11.63300     48.14100
    9     1     3     -0.18154       5.84700      13.14600     47.85400
   10     1     3     -0.18204       7.04600      13.88400     48.47800
   11     1     3     -0.18599       7.04300      15.39800     48.20900
   12     1     3     -0.24634       5.91100      16.15100     48.92400
   13     1     3     -0.18350      10.92900       7.09500     43.24600
   14     1     3     -0.18640      12.08700       7.36000     44.23000
   15     1     3     -0.18758      13.40700       6.68100     43.82700
   16     1     3     -0.19209      13.38900       5.14900     43.97500
   17     1     3     -0.18837      14.71000       4.46900     43.56800
   18     1     3     -0.17815      15.94400       4.86700     44.39900
   19     1     3     -0.18527      15.81700       4.54000     45.89500
   20     1     3     -0.19155      17.10900       4.83400     46.67000
   21     1     3     -0.19101      16.97800       4.51800     48.16600
   22     1     3     -0.24305      18.26900       4.81000     48.94100
   23     1     4     -0.05513       8.39900       7.18300     41.39900
   24     1     4     -0.13513       9.04500       6.19200     40.63000
   25     1     4     -0.13998       9.04100       6.27000     39.22300
   26     1     4     -0.13931       8.38700       7.33700     38.57800
   27     1     4     -0.13998       7.73600       8.32500     39.33900
   28     1     4     -0.13513       7.74000       8.24700     40.74600
   29     1     1      0.13430       9.54900       5.37000     41.11600
   30     1     1      0.14270       9.54000       5.50900     38.63900
   31     1     1      0.12750       8.38400       7.39500     37.49900
   32     1     1      0.14270       7.23300       9.14300     38.84600
   33     1     1      0.13430       7.23800       9.01100     41.32100
   34     1     2      0.09593       8.36200       6.04100     43.19200
   35     1     2      0.09593       7.45900       7.50100     43.29100
   36     1     2      0.09508       9.45500       7.56800     44.70400
   37     1     2      0.09459      10.53100       9.71600     43.90300
   38     1     2      0.09459       9.73800       9.52100     42.37900
   39     1     2      0.08981       8.54100      11.12700     43.71100
   40     1     2      0.08981       7.50300       9.75100     43.52900
   41     1     2      0.09247       9.23300      10.29600     45.99600
   42     1     2      0.09247       8.09500       8.98000     45.83700
   43     1     2      0.09445       6.21800      10.62200     45.59300
   44     1     2      0.09445       7.35700      11.93800     45.75100
   45     1     2      0.09051       7.95100      11.17700     48.05900
   46     1     2      0.09051       6.91200       9.79800     47.88500
   47     1     2      0.09136       4.90800      11.20900     47.73600
   48     1     2      0.09136       5.77000      11.47700     49.21900
   49     1     2      0.09310       4.92100      13.57000     48.24500
   50     1     2      0.09310       5.81600      13.32600     46.77900
   51     1     2      0.09184       7.96900      13.47200     48.07000
   52     1     2      0.09184       7.08200      13.69800     49.55200
   53     1     2      0.09047       7.99800      15.81200     48.54000
   54     1     2      0.09047       6.99400      15.58600     47.13600
   55     1     2      0.08281       6.00400      17.22600     48.76700
   56     1     2      0.08281       5.93400      15.97300     49.99900
   57     1     2      0.08281       4.93000      15.85500     48.55400
   58     1     2      0.09728      11.21600       7.40800     42.24000
   59     1     2      0.09728      10.76800       6.02000     43.18900
   60     1     2      0.09407      12.27200       8.43000     44.29700
   61     1     2      0.09407      11.80300       7.04400     45.23600
   62     1     2      0.09513      14.19700       7.08900     44.45900
   63     1     2      0.09513      13.66900       6.95700     42.80500
   64     1     2      0.08724      13.12600       4.87500     44.99800
   65     1     2      0.08724      12.59900       4.73200     43.35000
   66     1     2      0.08897      14.90900       4.68100     42.51500
   67     1     2      0.08897      14.58000       3.38700     43.62500
   68     1     2      0.09558      16.81000       4.34200     43.99400
   69     1     2      0.09558      16.16200       5.92700     44.26600
   70     1     2      0.09884      15.00200       5.12000     46.33000
   71     1     2      0.09884      15.54700       3.49000     46.01700
   72     1     2      0.09261      17.92900       4.25000     46.24500
   73     1     2      0.09261      17.38000       5.88300     46.54100
   74     1     2      0.09027      16.70800       3.47000     48.30000
   75     1     2      0.09027      16.16100       5.10200     48.59500
   76     1     2      0.08299      18.54900       5.86100     48.86200
   77     1     2      0.08299      19.10000       4.21300     48.56500
   78     1     2      0.08299      18.14800       4.58000     50.00000
   79     2     3     -0.10142      19.70400      28.11500     45.92800
   80     2     3     -0.13717      18.52400      27.63000     46.80700
   81     2     3     -0.17258      19.69500      27.49300     44.50900
   82     2     3     -0.17588      18.47000      27.83200     43.63800
   83     2     3     -0.19405      18.34900      29.32300     43.28200
   84     2     3     -0.19593      17.20100      29.59600     42.29900
   85     2     3     -0.18562      17.08300      31.08500     41.93900
   86     2     3     -0.17283      15.86500      31.41600     41.05600
   87     2     3     -0.18154      15.83400      30.71500     39.68400
   88     2     3     -0.18204      17.01500      31.08600     38.76900
   89     2     3     -0.18599      16.96300      30.40300     37.39200
   90     2     3     -0.24634      15.81600      30.89800     36.49900
   91     2     3     -0.18350      21.05600      27.90100     46.64700
   92     2     3     -0.18640      22.21400      28.75000     46.08600
   93     2     3     -0.18758      23.55100      28.53000     46.81500
   94     2     3     -0.19209      23.58100      29.10200     48.24400
   95     2     3     -0.18837      24.91800      28.87800     48.97500
   96     2     3     -0.17815      26.14800      29.54200     48.32600
   97     2     3     -0.18527      26.04500      31.07200     48.22300
   98     2     3     -0.19155      27.33600      31.71000     47.68800
   99     2     3     -0.19101      27.22900      33.23700     47.57400
  100     2     3     -0.24305      28.51700      33.87500     47.04200
  101     2     4     -0.05513      18.50500      26.14800     47.15000
  102     2     4     -0.13513      19.17400      25.67700     48.30000
  103     2     4     -0.13998      19.15500      24.30500     48.62100
  104     2     4     -0.13931      18.46200      23.39800     47.79600
  105     2     4     -0.13998      17.78800      23.86400     46.65200
  106     2     4     -0.13513      17.80800      25.23600     46.33100
  107     2     1      0.13430      19.70800      26.36500     48.93800
  108     2     1      0.14270      19.67100      23.95000     49.50100
  109     2     1      0.12750      18.44600      22.34700     48.04300
  110     2     1      0.14270      17.25500      23.17000     46.01900
  111     2     1      0.13430      17.28800      25.58200     45.45000
  112     2     2      0.09593      18.52200      28.19000     47.74300
  113     2     2      0.09593      17.57500      27.89200     46.33800
  114     2     2      0.09508      19.58200      29.19400     45.82400
  115     2     2      0.09459      20.58300      27.80200     43.96000
  116     2     2      0.09459      19.78100      26.40900     44.59600
  117     2     2      0.08981      18.54800      27.25800     42.71300
  118     2     2      0.08981      17.55200      27.48900     44.11200
  119     2     2      0.09247      19.28800      29.67100     42.84900
  120     2     2      0.09247      18.19000      29.90900     44.18700
  121     2     2      0.09445      16.26100      29.24800     42.73200
  122     2     2      0.09445      17.36000      29.01000     41.39300
  123     2     2      0.09051      18.00000      31.42700     41.45900
  124     2     2      0.09051      17.00200      31.66600     42.85900
  125     2     2      0.09136      14.95400      31.16300     41.60100
  126     2     2      0.09136      15.82200      32.49600     40.90400
  127     2     2      0.09310      14.89900      30.98800     39.19200
  128     2     2      0.09310      15.78800      29.63400     39.81400
  129     2     2      0.09184      17.94700      30.79400     39.25400
  130     2     2      0.09184      17.06700      32.16800     38.64400
  131     2     2      0.09047      17.90800      30.58700     36.87600
  132     2     2      0.09047      16.89800      29.32100     37.51400
  133     2     2      0.08281      15.87400      30.44400     35.50900
  134     2     2      0.08281      15.85400      31.97900     36.36700
  135     2     2      0.08281      14.84100      30.64400     36.91300
  136     2     2      0.09728      21.32200      26.84200     46.62200
  137     2     2      0.09728      20.92700      28.15000     47.69900
  138     2     2      0.09407      22.36700      28.51000     45.03500
  139     2     2      0.09407      21.95000      29.80800     46.11400
  140     2     2      0.09513      24.33300      29.00800     46.22400
  141     2     2      0.09513      23.79400      27.46600     46.83000
  142     2     2      0.08724      23.33600      30.16500     48.22500
  143     2     2      0.08724      22.79800      28.63400     48.84000
  144     2     2      0.08897      25.10000      27.80500     49.06100
  145     2     2      0.08897      24.82300      29.23900     50.00000
  146     2     2      0.09558      27.02500      29.28500     48.92000
  147     2     2      0.09558      26.33100      29.11200     47.34000
  148     2     2      0.09884      25.21700      31.34100     47.56600
  149     2     2      0.09884      25.80900      31.48900     49.20300
  150     2     2      0.09261      28.16800      31.45100     48.34500
  151     2     2      0.09261      27.57200      31.28600     46.71100
  152     2     2      0.09027      26.99200      33.66400     48.55000
  153     2     2      0.09027      26.39800      33.49900     46.91500
  154     2     2      0.08299      28.76400      33.49900     46.04800
  155     2     2      0.08299      29.36200      33.66700     47.69800
  156     2     2      0.08299      28.41400      34.95800     46.96800
  157     3     3     -0.10142      22.95000      26.51300     21.90600
  158     3     3     -0.13717      24.39600      27.06700     21.92200
  159     3     3     -0.17258      22.13900      26.97700     20.67000
  160     3     3     -0.17588      22.68600      26.52200     19.30200
  161     3     3     -0.19405      22.65400      24.99900     19.09200
  162     3     3     -0.19593      23.07100      24.60000     17.66900
  163     3     3     -0.18562      23.03500      23.07800     17.45600
  164     3     3     -0.17283      23.56800      22.63000     16.08200
  165     3     3     -0.18154      22.79900      23.17700     14.86500
  166     3     3     -0.18204      21.32600      22.73300     14.80800
  167     3     3     -0.18599      20.57300      23.26200     13.57600
  168     3     3     -0.24634      21.04900      22.65100     12.25000
  169     3     3     -0.18350      22.21900      26.83000     23.23100
  170     3     3     -0.18640      20.98400      25.94800     23.50100
  171     3     3     -0.18758      20.27100      26.27100     24.82500
  172     3     3     -0.19209      21.06700      25.85700     26.07600
  173     3     3     -0.18837      20.35500      26.18500     27.40200
  174     3     3     -0.17815      19.00300      25.47900     27.62100
  175     3     3     -0.18527      19.09900      23.94500     27.63300
  176     3     3     -0.19155      17.76000      23.27800     27.97700
  177     3     3     -0.19101      17.85300      21.74600     27.97700
  178     3     3     -0.24305      16.51600      21.07900     28.32200
  179     3     4     -0.05513      24.53700      28.57700     22.04500
  180     3     4     -0.13513      24.60100      29.18200     23.31800
  181     3     4     -0.13998      24.73500      30.58100     23.43400
  182     3     4     -0.13931      24.81000      31.37900     22.27700
  183     3     4     -0.13998      24.75200      30.78000     21.00500
  184     3     4     -0.13513      24.61900      29.38200     20.88900
  185     3     1      0.13430      24.54400      28.57800     24.21100
  186     3     1      0.14270      24.78100      31.03900     24.41100
  187     3     1      0.12750      24.91400      32.45100     22.36600
  188     3     1      0.14270      24.81200      31.39100     20.11600
  189     3     1      0.13430      24.57400      28.93200     19.90900
  190     3     2      0.09593      24.94500      26.61200     22.74800
  191     3     2      0.09593      24.93400      26.73800     21.03300
  192     3     2      0.09508      23.04100      25.42700     21.86000
  193     3     2      0.09459      21.11100      26.62800     20.74400
  194     3     2      0.09459      22.06800      28.06600     20.68000
  195     3     2      0.08981      22.08000      26.99400     18.52700
  196     3     2      0.08981      23.69600      26.89700     19.14600
  197     3     2      0.09247      21.64900      24.62500     19.29500
  198     3     2      0.09247      23.31700      24.51200     19.80700
  199     3     2      0.09445      24.07600      24.97400     17.46500
  200     3     2      0.09445      22.40900      25.08700     16.95300
  201     3     2      0.09051      22.02300      22.70400     17.60800
  202     3     2      0.09051      23.64000      22.59900     18.22700
  203     3     2      0.09136      24.61600      22.92300     15.99700
  204     3     2      0.09136      23.56700      21.54000     16.04100
  205     3     2      0.09310      23.31300      22.83500     13.96500
  206     3     2      0.09310      22.86200      24.26500     14.83700
  207     3     2      0.09184      20.81000      23.09400     15.69800
  208     3     2      0.09184      21.26200      21.64500     14.84300
  209     3     2      0.09047      19.51000      23.04100     13.69700
  210     3     2      0.09047      20.64600      24.34900     13.53100
  211     3     2      0.08281      20.42900      22.99600     11.42100
  212     3     2      0.08281      20.99200      21.56200     12.27100
  213     3     2      0.08281      22.07700      22.92900     12.02100
  214     3     2      0.09728      21.93700      27.88400     23.25300
  215     3     2      0.09728      22.92300      26.69300     24.05100
  216     3     2      0.09407      20.26100      26.07500     22.69700
  217     3     2      0.09407      21.26600      24.89300     23.48300
  218     3     2      0.09513      19.31500      25.74700     24.82400
  219     3     2      0.09513      20.03100      27.33400     24.86700
  220     3     2      0.08724      21.30700      24.79400     26.03200
  221     3     2      0.08724      22.02800      26.37200     26.08300
  222     3     2      0.08897      20.20400      27.26500     27.46700
  223     3     2      0.08897      21.02100      25.93500     28.23000
  224     3     2      0.09558      18.59500      25.81500     28.57500
  225     3     2      0.09558      18.28400      25.80300     26.86900
  226     3     2      0.09884      19.43300      23.59100     26.65600
  227     3     2      0.09884      19.86000      23.63200     28.35000
  228     3     2      0.09261      17.42300      23.62300     28.95700
  229     3     2      0.09261      17.00000      23.59800     27.26200
  230     3     2      0.09027      18.61100      21.42300     28.69100
  231     3     2      0.09027      18.18600      21.39800     26.99700
  232     3     2      0.08299      15.74100      21.35000     27.60300
  233     3     2      0.08299      16.17100      21.37300     29.31300
  234     3     2      0.08299      16.60900      19.99300     28.31300
  235     4     3     -0.10142      11.94200      19.73600     10.34000
  236     4     3     -0.13717      12.78700      18.58500     10.94000
  237     4     3     -0.17258      12.73900      21.05600     10.19100
  238     4     3     -0.17588      13.95200      21.00300      9.24100
  239     4     3     -0.19405      13.58300      20.74100      7.77200
  240     4     3     -0.19593      14.80100      20.83700      6.84100
  241     4     3     -0.18562      14.43200      20.58000      5.37100
  242     4     3     -0.17283      15.64600      20.54300      4.42300
  243     4     3     -0.18154      16.47500      21.84000      4.36000
  244     4     3     -0.18204      15.69000      23.05700      3.84000
  245     4     3     -0.18599      16.53100      24.34100      3.75600
  246     4     3     -0.24634      17.62400      24.29400      2.67800
  247     4     3     -0.18350      10.63200      19.93600     11.13600
  248     4     3     -0.18640       9.53700      20.70600     10.37100
  249     4     3     -0.18758       8.23800      20.89200     11.17300
  250     4     3     -0.19209       7.43900      19.59200     11.37300
  251     4     3     -0.18837       6.14000      19.77700     12.18000
  252     4     3     -0.17815       5.09400      20.71400     11.54600
  253     4     3     -0.18527       4.59900      20.24900     10.16700
  254     4     3     -0.19155       3.46900      21.13500      9.62300
  255     4     3     -0.19101       2.98300      20.67700      8.24000
  256     4     3     -0.24305       1.85500      21.56100      7.69600
  257     4     4     -0.05513      13.27300      18.78200     12.36900
  258     4     4     -0.13513      12.47200      18.36900     13.45400
  259     4     4     -0.13998      12.92200      18.54800     14.77800
  260     4     4     -0.13931      14.17800      19.13500     15.02100
  261     4     4     -0.13998      14.98400      19.54200     13.94200
  262     4     4     -0.13513      14.53400      19.36400     12.61900
  263     4     1      0.13430      11.50700      17.91900     13.27700
  264     4     1      0.14270      12.30200      18.23300     15.60500
  265     4     1      0.12750      14.52400      19.27000     16.03600
  266     4     1      0.14270      15.94900      19.99100     14.12700
  267     4     1      0.13430      15.16000      19.68100     11.79800
  268     4     2      0.09593      12.20800      17.66100     10.90900
  269     4     2      0.09593      13.64800      18.38100     10.30400
  270     4     2      0.09508      11.64700      19.40800      9.34300
  271     4     2      0.09459      12.08400      21.85200      9.84100
  272     4     2      0.09459      13.07400      21.38200     11.17800
  273     4     2      0.08981      14.47000      21.96100      9.30600
  274     4     2      0.08981      14.67500      20.26200      9.58000
  275     4     2      0.09247      12.82500      21.45800      7.45300
  276     4     2      0.09247      13.13600      19.75200      7.67200
  277     4     2      0.09445      15.56000      20.12000      7.15800
  278     4     2      0.09445      15.24900      21.82600      6.94000
  279     4     2      0.09051      13.71200      21.32500      5.03100
  280     4     2      0.09051      13.91500      19.62200      5.29800
  281     4     2      0.09136      16.30000      19.72100      4.71900
  282     4     2      0.09136      15.30200      20.29200      3.41800
  283     4     2      0.09310      17.32900      21.65700      3.70600
  284     4     2      0.09310      16.90300      22.06100      5.33800
  285     4     2      0.09184      14.84900      23.24900      4.50700
  286     4     2      0.09184      15.25500      22.83300      2.86500
  287     4     2      0.09047      15.86600      25.18000      3.53900
  288     4     2      0.09047      16.97700      24.55900      4.72700
  289     4     2      0.08281      18.13500      25.25500      2.60400
  290     4     2      0.08281      17.20400      24.07000      1.69600
  291     4     2      0.08281      18.38100      23.54300      2.89900
  292     4     2      0.09728      10.84800      20.43500     12.08200
  293     4     2      0.09728      10.23900      18.95600     11.40000
  294     4     2      0.09407       9.90500      21.69600     10.10400
  295     4     2      0.09407       9.31800      20.20600      9.42600
  296     4     2      0.09513       7.61700      21.61100     10.63700
  297     4     2      0.09513       8.46000      21.34900     12.13800
  298     4     2      0.08724       7.21900      19.13600     10.40700
  299     4     2      0.08724       8.05400      18.86500     11.90300
  300     4     2      0.08897       6.39100      20.14900     13.17500
  301     4     2      0.08897       5.68500      18.79900     12.34200
  302     4     2      0.09558       4.24300      20.78100     12.22400
  303     4     2      0.09558       5.48900      21.72800     11.47800
  304     4     2      0.09884       5.42800      20.25300      9.45900
  305     4     2      0.09884       4.25500      19.21500     10.23300
  306     4     2      0.09261       2.63200      21.12900     10.32300
  307     4     2      0.09261       3.81500      22.16800      9.56400
  308     4     2      0.09027       2.63700      19.64400      8.29500
  309     4     2      0.09027       3.81700      20.68400      7.53600
  310     4     2      0.08299       2.17800      22.59700      7.59100
  311     4     2      0.08299       0.98700      21.54600      8.35500
  312     4     2      0.08299       1.53000      21.21600      6.71400
  313     5     3     -0.10142       9.32700      21.41200     25.00500
  314     5     3     -0.13717      10.85900      21.21300     24.89400
  315     5     3     -0.17258       8.72600      20.77100     26.28100
  316     5     3     -0.17588       9.23500      21.34200     27.62000
  317     5     3     -0.19405       8.85900      22.81500     27.85300
  318     5     3     -0.19593       9.25900      23.30200     29.25400
  319     5     3     -0.18562       8.88100      24.77300     29.49000
  320     5     3     -0.17283       9.37800      25.33400     30.83500
  321     5     3     -0.18154       8.83500      24.62200     32.08900
  322     5     3     -0.18204       7.30600      24.70800     32.24100
  323     5     3     -0.18599       6.77500      24.01800     33.50800
  324     5     3     -0.24634       7.17600      24.72400     34.81100
  325     5     3     -0.18350       8.61000      20.93100     23.72200
  326     5     3     -0.18640       7.18900      21.49900     23.54000
  327     5     3     -0.18758       6.49100      21.01600     22.25700
  328     5     3     -0.19209       7.08800      21.60500     20.96600
  329     5     3     -0.18837       6.39200      21.11800     19.68100
  330     5     3     -0.17815       4.90100      21.48700     19.55400
  331     5     3     -0.18527       4.63400      23.00000     19.55800
  332     5     3     -0.19155       3.15700      23.33400     19.30400
  333     5     3     -0.19101       2.88800      24.84500     19.32000
  334     5     3     -0.24305       1.41400      25.17900     19.06700
  335     5     4     -0.05513      11.34200      19.77800     24.74100
  336     5     4     -0.13513      11.46700      19.20400     23.45800
  337     5     4     -0.13998      11.91800      17.87600     23.31500
  338     5     4     -0.13931      12.24900      17.11800     24.45400
  339     5     4     -0.13998      12.13200      17.68800     25.73600
  340     5     4     -0.13513      11.68100      19.01500     25.87900
  341     5     1      0.13430      11.21500      19.77700     22.57900
  342     5     1      0.14270      12.00900      17.44100     22.33000
  343     5     1      0.12750      12.59600      16.10100     24.34400
  344     5     1      0.14270      12.38800      17.10800     26.61100
  345     5     1      0.13430      11.59400      19.44200     26.86600
  346     5     2      0.09593      11.23300      21.78400     24.04300
  347     5     2      0.09593      11.35900      21.65900     25.75300
  348     5     2      0.09508       9.16400      22.48800     25.06100
  349     5     2      0.09459       7.64200      20.86900     26.27500
  350     5     2      0.09459       8.91200      19.69500     26.26000
  351     5     2      0.08981       8.80600      20.74100     28.42400
  352     5     2      0.08981      10.31200      21.21500     27.70900
  353     5     2      0.09247       7.78500      22.94300     27.71700
  354     5     2      0.09247       9.34400      23.44400     27.10600
  355     5     2      0.09445      10.33400      23.17400     29.39100
  356     5     2      0.09445       8.77500      22.67300     30.00100
  357     5     2      0.09051       7.80100      24.89800     29.40500
  358     5     2      0.09051       9.30700      25.38000     28.69000
  359     5     2      0.09136      10.46800      25.29600     30.85300
  360     5     2      0.09136       9.12400      26.39400     30.89100
  361     5     2      0.09310       9.30900      25.07600     32.96100
  362     5     2      0.09310       9.15300      23.57900     32.09700
  363     5     2      0.09184       6.83500      24.23600     31.37900
  364     5     2      0.09184       6.98600      25.75100     32.22500
  365     5     2      0.09047       5.68400      23.98300     33.45500
  366     5     2      0.09047       7.10400      22.97800     33.53300
  367     5     2      0.08281       6.70700      24.24400     35.67100
  368     5     2      0.08281       6.86400      25.76900     34.81000
  369     5     2      0.08281       8.25300      24.69500     34.97400
  370     5     2      0.09728       8.58200      19.84000     23.70200
  371     5     2      0.09728       9.21000      21.22900     22.86400
  372     5     2      0.09407       6.56700      21.20500     24.38500
  373     5     2      0.09407       7.21600      22.59000     23.55600
  374     5     2      0.09513       5.44000      21.30100     22.32300
  375     5     2      0.09513       6.50400      19.92600     22.21500
  376     5     2      0.08724       7.07500      22.69400     21.01100
  377     5     2      0.08724       8.14000      21.32900     20.89300
  378     5     2      0.08897       6.49500      20.03300     19.61000
  379     5     2      0.08897       6.92800      21.51700     18.81800
  380     5     2      0.09558       4.52500      21.06300     18.62200
  381     5     2      0.09558       4.32600      21.00400     20.34400
  382     5     2      0.09884       4.93500      23.42400     20.51700
  383     5     2      0.09884       5.25400      23.48200     18.80000
  384     5     2      0.09261       2.85000      22.92000     18.34200
  385     5     2      0.09261       2.54000      22.84500     20.06000
  386     5     2      0.09027       3.50400      25.33700     18.56600
  387     5     2      0.09027       3.19100      25.26200     20.28300
  388     5     2      0.08299       0.77000      24.73500     19.82700
  389     5     2      0.08299       1.08600      24.81200     18.09400
  390     5     2      0.08299       1.24900      26.25700     19.08600
  391     6     3     -0.10142      32.55100      10.56600     46.21000
  392     6     3     -0.13717      31.60500      10.10600     45.07300
  393     6     3     -0.17258      32.69500       9.51500     47.33900
  394     6     3     -0.17588      33.30900       8.16400     46.92000
  395     6     3     -0.19405      34.77000       8.26100     46.45100
  396     6     3     -0.19593      35.38700       6.88100     46.18100