LAMMPS data file of the system for full atom style

    4992 atoms
    5088 bonds
    9792 angles
   14400 dihedrals
     576 impropers

    4 atom types
    5 bond types
    8 angle types
    6 dihedral types
    1 improper types

    0.000000    50.000000 xlo xhi
    0.000000    50.000000 ylo yhi
    0.000000    50.000000 zlo zhi

 Masses 

    1       1.0080
    2       1.0080
    3      12.0110
    4      12.0110

 Pair Coeffs 

    1       0.0300       2.4200
    2       0.0300       2.5000
    3       0.0660       3.5000
    4       0.0700       3.5500

 Bond Coeffs 

    1     268.0000        1.5290
    2     317.0000        1.5100
    3     340.0000        1.0900
    4     367.0000        1.0800
    5     469.0000        1.4000

 Angle Coeffs 

    1      33.0000      107.8000
    2      35.0000      109.5000
    3      35.0000      120.0000
    4      37.5000      110.7000
    5      58.3500      112.7000
    6      63.0000      114.0000
    7      63.0000      120.0000
    8      70.0000      120.0000

 Dihedral Coeffs 

    1      -0.2500        0.0000       0.0000        0.0000
    2       0.0000        0.0000       0.0000        0.0000
    3       0.0000        0.0000       0.3000        0.0000
    4       0.0000        0.0000       0.4620        0.0000
    5       0.0000        7.2500       0.0000        0.0000
    6       0.8500       -0.2000       0.2000        0.0000

 Improper Coeffs 

    1       2.5000     -1     2

 Atoms 

    1     1     3     -0.14925      23.74500      22.63900     23.67100
    2     1     4     -0.08617      22.93100      22.08000     24.82000
    3     1     4     -0.13903      23.24900      20.81700     25.36500
    4     1     3     -0.18161      23.17800      22.26800     22.29400
    5     1     3     -0.17720      24.00200      22.86100     21.13800
    6     1     3     -0.17955      23.51300      22.42800     19.74300
    7     1     3     -0.17765      22.06800      22.84400     19.39500
    8     1     3     -0.19271      21.77900      24.35400     19.48700
    9     1     3     -0.18993      22.62700      25.20800     18.53000
   10     1     3     -0.18002      22.24000      26.69400     18.58000
   11     1     3     -0.17912      23.01200      27.56400     17.57300
   12     1     3     -0.23551      24.51100      27.68100     17.88300
   13     1     4     -0.12985      22.48900      20.29100     26.42700
   14     1     4     -0.06754      21.40500      21.02700     26.94400
   15     1     4     -0.06352      21.08200      22.28400     26.39900
   16     1     4     -0.12867      21.84100      22.81200     25.33700
   17     1     3     -0.13934      19.90400      23.03300     26.99000
   18     1     3     -0.16257      19.88000      22.97900     28.53100
   19     1     3     -0.16390      20.23600      21.59400     29.13100
   20     1     3     -0.13464      20.55500      20.50700     28.08600
   21     1     1      0.13193      22.74100      19.32400     26.83900
   22     1     1      0.13984      21.59000      23.77400     24.91700
   23     1     1      0.13868      24.07700      20.24700     24.96800
   24     1     2      0.09933      23.79400      23.72400     23.77500
   25     1     2      0.09933      24.77200      22.28500     23.76200
   26     1     2      0.09977      22.14700      22.61700     22.23300
   27     1     2      0.09977      23.13900      21.18200     22.20200
   28     1     2      0.09164      25.04200      22.55200     21.24800
   29     1     2      0.09164      24.01200      23.94900     21.20800
   30     1     2      0.09126      24.19500      22.82500     18.99000
   31     1     2      0.09126      23.59500      21.34400     19.65800
   32     1     2      0.09300      21.37300      22.31100     20.04400
   33     1     2      0.09300      21.83700      22.49900     18.38600
   34     1     2      0.08675      20.72300      24.51200     19.26200
   35     1     2      0.08675      21.91300      24.69900     20.51300
   36     1     2      0.09689      22.51400      24.83500     17.51100
   37     1     2      0.09689      23.68100      25.09800     18.78400
   38     1     2      0.08912      22.38400      27.08200     19.59000
   39     1     2      0.08912      21.17300      26.79000     18.37200
   40     1     2      0.08528      22.87100      27.17900     16.56300
   41     1     2      0.08528      22.57800      28.56600     17.57400
   42     1     2      0.08246      24.99700      28.36800     17.19000
   43     1     2      0.08246      24.68000      28.05800     18.89200
   44     1     2      0.08246      25.01800      26.72000     17.79400
   45     1     2      0.09690      18.99600      22.57700     26.59300
   46     1     2      0.09690      19.90300      24.06800     26.65000
   47     1     2      0.08705      20.60200      23.70600     28.90700
   48     1     2      0.08705      18.90900      23.31300     28.89800
   49     1     2      0.08606      21.11100      21.71700     29.77000
   50     1     2      0.08606      19.43800      21.25000     29.79100
   51     1     2      0.09693      19.62700      20.12900     27.65400
   52     1     2      0.09693      21.04200      19.65600     28.56400
   53     2     3     -0.14925      27.46200      23.72800     23.06300
   54     2     4     -0.08617      27.76800      24.83900     22.08000
   55     2     4     -0.13903      27.28200      24.76800     20.75700
   56     2     3     -0.18161      28.53000      22.62500     23.07900
   57     2     3     -0.17720      28.21700      21.51700     24.09700
   58     2     3     -0.17955      29.22100      20.34900     24.07000
   59     2     3     -0.17765      30.68000      20.72900     24.40100
   60     2     3     -0.19271      30.88700      21.42200     25.76000
   61     2     3     -0.18993      30.46900      20.56300     26.96500
   62     2     3     -0.18002      30.78100      21.24900     28.30400
   63     2     3     -0.17912      30.45300      20.38000     29.53100
   64     2     3     -0.23551      28.95100      20.12500     29.72000
   65     2     4     -0.12985      27.57100      25.79500     19.83800
   66     2     4     -0.06754      28.35400      26.89500     20.24100
   67     2     4     -0.06352      28.84500      26.96600     21.55900
   68     2     4     -0.12867      28.55500      25.93900     22.47900
   69     2     3     -0.13934      29.68400      28.16900     21.94000
   70     2     3     -0.16257      29.10100      29.49200     21.40300
   71     2     3     -0.16390      28.56000      29.41400     19.95200
   72     2     3     -0.13464      28.69500      28.02600     19.29300
   73     2     1      0.13193      27.19300      25.73300     18.82700
   74     2     1      0.13984      28.93700      25.99300     23.48800
   75     2     1      0.13868      26.68500      23.92400     20.44200
   76     2     2      0.09933      27.35900      24.16300     24.05900
   77     2     2      0.09933      26.48700      23.30300     22.82200
   78     2     2      0.09977      29.49700      23.07700     23.30500
   79     2     2      0.09977      28.61900      22.19700     22.08000
   80     2     2      0.09164      27.22300      21.11700     23.89400
   81     2     2      0.09164      28.16300      21.93700     25.10200
   82     2     2      0.09126      28.88400      19.57500     24.76000
   83     2     2      0.09126      29.19600      19.88100     23.08400
   84     2     2      0.09300      31.07300      21.37200     23.61300
   85     2     2      0.09300      31.29500      19.82800     24.36500
   86     2     2      0.08675      31.94300      21.67700     25.85500
   87     2     2      0.08675      30.35400      22.37400     25.78000
   88     2     2      0.09689      30.97900      19.60000     26.92000
   89     2     2      0.09689      29.40200      20.35100     26.90600
   90     2     2      0.08912      30.24700      22.19800     28.37000
   91     2     2      0.08912      31.84200      21.50100     28.33400
   92     2     2      0.08528      30.98600      19.43100     29.46800
   93     2     2      0.08528      30.83600      20.87900     30.42300
   94     2     2      0.08246      28.76600      19.57400     30.64200
   95     2     2      0.08246      28.39400      21.06100     29.77900
   96     2     2      0.08246      28.53500      19.53600     28.90300
   97     2     2      0.09690      30.68200      28.01400     21.52800
   98     2     2      0.09690      29.80200      28.22200     23.02200
   99     2     2      0.08705      28.27800      29.79000     22.05500
  100     2     2      0.08705      29.84500      30.28600     21.48900
  101     2     2      0.08606      27.50200      29.67900     19.97000
  102     2     2      0.08606      29.04100      30.16800     19.32600
  103     2     2      0.09693      29.72300      27.87500     18.96300
  104     2     2      0.09693      28.07300      27.97300     18.39900
  105     3     3     -0.14925       9.29200      29.60000     10.45900
  106     3     4     -0.08617       7.93800      29.81000     11.10400
  107     3     4     -0.13903       7.48400      31.11600     11.39100
  108     3     3     -0.18161      10.42400      29.41700     11.47800
  109     3     3     -0.17720      11.78800      29.18300     10.80800
  110     3     3     -0.17955      12.96000      29.08900     11.80400
  111     3     3     -0.17765      12.86500      27.93300     12.82200
  112     3     3     -0.19271      12.72700      26.52700     12.21000
  113     3     3     -0.18993      13.91600      26.11600     11.32500
  114     3     3     -0.18002      13.78800      24.67200     10.81400
  115     3     3     -0.17912      15.00100      24.20000      9.99500
  116     3     3     -0.23551      15.16200      24.93200      8.65500
  117     3     4     -0.12985       6.22900      31.31400     11.99800
  118     3     4     -0.06754       5.42700      30.20300     12.32500
  119     3     4     -0.06352       5.87900      28.89900     12.04500
  120     3     4     -0.12867       7.13400      28.70000     11.43700
  121     3     3     -0.13934       4.97800      27.74000     12.42000
  122     3     3     -0.16257       3.50100      27.99500     12.05700
  123     3     3     -0.16390       3.00300      29.43100     12.36500
  124     3     3     -0.13464       4.06900      30.36000     12.98000
  125     3     1      0.13193       5.88800      32.31700     12.21300
  126     3     1      0.13984       7.48100      27.70000     11.22800
  127     3     1      0.13868       8.09800      31.97100     11.14500
  128     3     2      0.09933       9.23400      28.73000      9.80300
  129     3     2      0.09933       9.50700      30.44900      9.80800
  130     3     2      0.09977      10.17900      28.57500     12.12700
  131     3     2      0.09977      10.47400      30.29500     12.12300
  132     3     2      0.09164      11.99100      30.00300     10.11800
  133     3     2      0.09164      11.75200      28.28500     10.19100
  134     3     2      0.09126      13.89300      29.00400     11.24700
  135     3     2      0.09126      13.03900      30.03000     12.35000
  136     3     2      0.09300      12.02400      28.11000     13.49300
  137     3     2      0.09300      13.74800      27.95600     13.46300
  138     3     2      0.08675      12.62600      25.80900     13.02500
  139     3     2      0.08675      11.79800      26.45500     11.64200
  140     3     2      0.09689      14.84300      26.22200     11.88900
  141     3     2      0.09689      13.98900      26.79600     10.47800
  142     3     2      0.08912      12.87800      24.56700     10.22000
  143     3     2      0.08912      13.66600      24.00300     11.66700
  144     3     2      0.08528      15.91200      24.30400     10.58600
  145     3     2      0.08528      14.89400      23.13200      9.79700
  146     3     2      0.08246      15.98600      24.50900      8.08000
  147     3     2      0.08246      14.26100      24.84900      8.04700
  148     3     2      0.08246      15.37700      25.99100      8.79600
  149     3     2      0.09690       5.07100      27.58900     13.49600
  150     3     2      0.09690       5.32700      26.82100     11.94900
  151     3     2      0.08705       3.37900      27.81700     10.98800
  152     3     2      0.08705       2.86600      27.25900     12.55200
  153     3     2      0.08606       2.66100      29.87800     11.43100
  154     3     2      0.08606       2.12500      29.39700     13.01200
  155     3     2      0.09693       4.19100      30.12900     14.03900
  156     3     2      0.09693       3.74000      31.39800     12.92600
  157     4     3     -0.14925      41.57100      37.52600     17.31700
  158     4     4     -0.08617      41.29200      36.13100     17.83700
  159     4     4     -0.13903      40.65800      35.17900     17.00900
  160     4     3     -0.18161      40.43400      38.51600     17.60600
  161     4     3     -0.17720      40.74200      39.93200     17.09300
  162     4     3     -0.17955      39.58100      40.92600     17.28500
  163     4     3     -0.17765      39.15700      41.16700     18.74900
  164     4     3     -0.19271      40.27800      41.65300     19.68600
  165     4     3     -0.18993      40.89100      43.00200     19.27400
  166     4     3     -0.18002      41.93500      43.49900     20.28600
  167     4     3     -0.17912      42.50700      44.88700     19.94800
  168     4     3     -0.23551      43.36000      44.90700     18.67100
  169     4     4     -0.12985      40.39000      33.88400     17.49200
  170     4     4     -0.06754      40.75200      33.53900     18.80900
  171     4     4     -0.06352      41.37900      34.48800     19.63900
  172     4     4     -0.12867      41.64800      35.78300     19.15700
  173     4     3     -0.13934      41.74400      34.06600     21.04900
  174     4     3     -0.16257      42.36900      32.65700     21.10300
  175     4     3     -0.16390      41.67800      31.61300     20.18800
  176     4     3     -0.13464      40.48600      32.16100     19.37800
  177     4     1      0.13193      39.90600      33.16100     16.85000
  178     4     1      0.13984      42.12500      36.51100     19.79700
  179     4     1      0.13868      40.37600      35.44100     15.99900
  180     4     2      0.09933      42.50100      37.88300     17.76200
  181     4     2      0.09933      41.75700      37.47100     16.24400
  182     4     2      0.09977      40.25600      38.54100     18.68200
  183     4     2      0.09977      39.51300      38.14900     17.15200
  184     4     2      0.09164      40.97600      39.88100     16.02900
  185     4     2      0.09164      41.64300      40.31600     17.57200
  186     4     2      0.09126      39.84900      41.87800     16.82500
  187     4     2      0.09126      38.71400      40.57400     16.72300
  188     4     2      0.09300      38.72800      40.25100     19.15600
  189     4     2      0.09300      38.34300      41.89300     18.76400
  190     4     2      0.08675      39.86700      41.74300     20.69200
  191     4     2      0.08675      41.06100      40.89600     19.75800
  192     4     2      0.09689      40.10000      43.74500     19.17000
  193     4     2      0.09689      41.35400      42.90400     18.29200
  194     4     2      0.08912      42.74800      42.77500     20.36800
  195     4     2      0.08912      41.47600      43.54700     21.27500
  196     4     2      0.08528      41.69700      45.61300     19.86400
  197     4     2      0.08528      43.12400      45.22300     20.78300
  198     4     2      0.08246      43.80400      45.89000     18.51900
  199     4     2      0.08246      44.17400      44.18300     18.72600
  200     4     2      0.08246      42.76700      44.67900     17.78500
  201     4     2      0.09690      40.82900      34.08500     21.64200
  202     4     2      0.09690      42.41900      34.79400     21.49900
  203     4     2      0.08705      43.41300      32.73700     20.79600
  204     4     2      0.08705      42.39200      32.30200     22.13400
  205     4     2      0.08606      42.42100      31.23600     19.48400
  206     4     2      0.08606      41.36100      30.74700     20.77200
  207     4     2      0.09693      39.60900      32.23900     20.02300
  208     4     2      0.09693      40.22100      31.46500     18.58100
  209     5     3     -0.14925      43.49300       5.18600     30.40400
  210     5     4     -0.08617      42.40100       4.41800     29.68900
  211     5     4     -0.13903      42.72600       3.54700     28.62600
  212     5     3     -0.18161      43.76100       6.56700     29.78900
  213     5     3     -0.17720      44.85600       7.34300     30.53900
  214     5     3     -0.17955      45.21300       8.69300     29.88900
  215     5     3     -0.17765      44.05500       9.71000     29.80700
  216     5     3     -0.19271      43.39100      10.05900     31.15100
  217     5     3     -0.18993      44.34800      10.70300     32.16800
  218     5     3     -0.18002      43.62600      11.12600     33.45800
  219     5     3     -0.17912      44.53800      11.85000     34.46200
  220     5     3     -0.23551      45.62800      10.95100     35.06400
  221     5     4     -0.12985      41.71200       2.83800     27.95400
  222     5     4     -0.06754      40.36800       3.00200     28.34200
  223     5     4     -0.06352      40.04000       3.87400     29.39800
  224     5     4     -0.12867      41.05300       4.58400     30.07100
  225     5     3     -0.13934      38.57800       4.01700     29.77200
  226     5     3     -0.16257      37.84000       2.66300     29.80900
  227     5     3     -0.16390      38.20200       1.70300     28.64600
  228     5     3     -0.13464      39.23900       2.26400     27.65200
  229     5     1      0.13193      41.97000       2.17200     27.14300
  230     5     1      0.13984      40.80000       5.25600     30.87700
  231     5     1      0.13868      43.75500       3.42100     28.32300
  232     5     2      0.09933      43.21500       5.29200     31.45300
  233     5     2      0.09933      44.40600       4.58900     30.39700
  234     5     2      0.09977      42.83200       7.13800     29.79100
  235     5     2      0.09977      44.04300       6.44600     28.74200
  236     5     2      0.09164      45.76000       6.73300     30.57900
  237     5     2      0.09164      44.56100       7.49700     31.57700
  238     5     2      0.09126      46.04700       9.13900     30.43300
  239     5     2      0.09126      45.59400       8.51400     28.88200
  240     5     2      0.09300      43.29300       9.33500     29.12300
  241     5     2      0.09300      44.42500      10.62700     29.34500
  242     5     2      0.08675      42.56600      10.74600     30.95500
  243     5     2      0.08675      42.93100       9.16900     31.58400
  244     5     2      0.09689      44.82800      11.57100     31.71700
  245     5     2      0.09689      45.14400      10.00000     32.41100
  246     5     2      0.08912      43.17200      10.25500     33.93200
  247     5     2      0.08912      42.80000      11.79100     33.20000
  248     5     2      0.08528      44.99500      12.72100     33.99100
  249     5     2      0.08528      43.92200      12.23900     35.27500
  250     5     2      0.08246      46.19500      11.48700     35.82500
  251     5     2      0.08246      45.19800      10.06700     35.53600
  252     5     2      0.08246      46.33800      10.61600     34.30800
  253     5     2      0.09690      38.11400       4.66800     29.03100
  254     5     2      0.09690      38.48100       4.52400     30.73200
  255     5     2      0.08705      38.09000       2.16600     30.74800
  256     5     2      0.08705      36.76300       2.83000     29.84300
  257     5     2      0.08606      38.60700       0.78700     29.07800
  258     5     2      0.08606      37.30100       1.40100     28.11000
  259     5     2      0.09693      38.75400       2.97000     26.97600
  260     5     2      0.09693      39.63500       1.46200     27.02900
  261     6     3     -0.14925      21.14000      30.50000     28.76900
  262     6     4     -0.08617      20.39400      30.00200     29.99000
  263     6     4     -0.13903      19.91000      30.91900     30.94700
  264     6     3     -0.18161      22.65800      30.57800     28.98000
  265     6     3     -0.17720      23.40300      31.06400     27.72600
  266     6     3     -0.17955      24.91900      31.24200     27.93600
  267     6     3     -0.17765      25.68400      29.96000     28.32400
  268     6     3     -0.19271      25.53600      28.78300     27.34200
  269     6     3     -0.18993      26.06000      29.08600     25.92800
  270     6     3     -0.18002      25.98600      27.85900     25.00600
  271     6     3     -0.17912      26.58100      28.10300     23.60900
  272     6     3     -0.23551      25.77800      29.10400     22.76500
  273     6     4     -0.12985      19.22300      30.45800     32.08800
  274     6     4     -0.06754      19.02400      29.07600     32.27400
  275     6     4     -0.06352      19.51000      28.15900     31.32300
  276     6     4     -0.12867      20.19700      28.61900     30.18200
  277     6     3     -0.13934      19.27100      26.68300     31.57300
  278     6     3     -0.16257      17.84100      26.39000     32.07000
  279     6     3     -0.16390      17.30500      27.40100     33.11700
  280     6     3     -0.13464      18.29200      28.52800     33.48200
  281     6     1      0.13193      18.85400      31.16700     32.81500
  282     6     1      0.13984      20.57300      27.91400     29.45600
  283     6     1      0.13868      20.06400      31.98000     30.81100
  284     6     2      0.09933      20.91200      29.84200     27.93000
  285     6     2      0.09933      20.74800      31.48000     28.49300
  286     6     2      0.09977      23.02300      29.59200     29.27100
  287     6     2      0.09977      22.87100      31.24200     29.81800
  288     6     2      0.09164      22.98600      32.02200     27.41300
  289     6     2      0.09164      23.22100      30.38100     26.89500
  290     6     2      0.09126      25.35500      31.66300     27.02900
  291     6     2      0.09126      25.08500      31.99600     28.70700
  292     6     2      0.09300      25.36400      29.63500     29.31500
  293     6     2      0.09300      26.74200      30.20100     28.43300
  294     6     2      0.08675      26.08300      27.93000     27.74700
  295     6     2      0.08675      24.49400      28.46500     27.29300
  296     6     2      0.09689      27.09100      29.43600     25.98900
  297     6     2      0.09689      25.48100      29.90100     25.49500
  298     6     2      0.08912      24.95200      27.52400     24.91400
  299     6     2      0.08912      26.52700      27.03300     25.47100
  300     6     2      0.08528      27.61500      28.43900     23.69700
  301     6     2      0.08528      26.62000      27.15200     23.07500
  302     6     2      0.08246      26.19300      29.18300     21.76000
  303     6     2      0.08246      24.73600      28.79500     22.66700
  304     6     2      0.08246      25.79300      30.10300     23.20000
  305     6     2      0.09690      19.99400      26.35900     32.32300
  306     6     2      0.09690      19.48200      26.10700     30.67200
  307     6     2      0.08705      17.17200      26.41000     31.20800
  308     6     2      0.08705      17.78700      25.37400     32.46100
  309     6     2      0.08606      16.40200      27.85900     32.71400
  310     6     2      0.08606      16.99000      26.87900     34.02200
  311     6     2      0.09693      19.04600      28.14700     34.17200
  312     6     2      0.09693      17.77100      29.32900     34.00600
  313     7     3     -0.14925      38.35600      22.44600     28.73700
  314     7     4     -0.08617      39.01300      23.68000     28.15300
  315     7     4     -0.13903      40.36200      23.63500     27.73800
  316     7     3     -0.18161      38.48100      22.36200     30.26500
  317     7     3     -0.17720      37.79000      21.11700     30.84500
  318     7     3     -0.17955      37.97800      20.95600     32.36500
  319     7     3     -0.17765      37.40900      22.10500     33.22300
  320     7     3     -0.19271      35.91200      22.39800     33.01900
  321     7     3     -0.18993      34.99400      21.21500     33.37000
  322     7     3     -0.18002      33.50600      21.57800     33.24800
  323     7     3     -0.17912      32.56000      20.44300     33.67300
  324     7     3     -0.23551      32.60100      19.22500     32.73900
  325     7     4     -0.12985      40.97800      24.78300     27.20300
  326     7     4     -0.06754      40.24500      25.98000     27.08500
  327     7     4     -0.06352      38.90200      26.02900     27.50300
  328     7     4     -0.12867      38.28400      24.88200     28.03900
  329     7     3     -0.13934      38.16000      27.34300     27.35800
  330     7     3     -0.16257      38.43400      28.03200     26.00500
  331     7     3     -0.16390      39.91400      27.97800     25.54500
  332     7     3     -0.13464      40.86000      27.24300     26.51700
  333     7     1      0.13193      42.01000      24.73900     26.88600
  334     7     1      0.13984      37.25500      24.92300     28.36300
  335     7     1      0.13868      40.92800      22.72000     27.83000
  336     7     2      0.09933      37.30400      22.44200     28.44700
  337     7     2      0.09933      38.79600      21.56100     28.27600
  338     7     2      0.09977      38.05000      23.26400     30.70200
  339     7     2      0.09977      39.53600      22.36300     30.54000
  340     7     2      0.09164      38.18900      20.22800     30.35400
  341     7     2      0.09164      36.72700      21.13200     30.60100
  342     7     2      0.09126      37.52900      20.01300     32.68000
  343     7     2      0.09126      39.04300      20.85000     32.58200
  344     7     2      0.09300      37.97800      23.01600     33.03000
  345     7     2      0.09300      37.58700      21.87900     34.27600
  346     7     2      0.08675      35.64400      23.25200     33.64400
  347     7     2      0.08675      35.72900      22.72000     31.99300
  348     7     2      0.09689      35.20600      20.87800     34.38500
  349     7     2      0.09689      35.21800      20.37600     32.71200
  350     7     2      0.08912      33.28000      21.88400     32.22500
  351     7     2      0.08912      33.30100      22.45000     33.87300
  352     7     2      0.08528      32.78300      20.13400     34.69500
  353     7     2      0.08528      31.53900      20.82900     33.69500
  354     7     2      0.08246      31.86000      18.48300     33.03700
  355     7     2      0.08246      32.38800      19.50700     31.70800
  356     7     2      0.08246      33.57500      18.73300     32.75900
  357     7     2      0.09690      38.48400      27.99200     28.17200
  358     7     2      0.09690      37.08900      27.19100     27.49200
  359     7     2      0.08705      37.82600      27.54000     25.24500
  360     7     2      0.08705      38.08500      29.06500     26.03800
  361     7     2      0.08606      39.95100      27.46500     24.58300
  362     7     2      0.08606      40.29000      28.98500     25.35500
  363     7     2      0.09693      41.10100      27.89500     27.35800
  364     7     2      0.09693      41.80500      27.01600     26.02200
  365     8     3     -0.14925      32.22000      44.92000     35.23200
  366     8     4     -0.08617      32.01700      44.32000     33.85600
  367     8     4     -0.13903      30.91700      44.71600     33.06600
  368     8     3     -0.18161      31.54600      44.11200     36.34900
  369     8     3     -0.17720      31.78000      44.72100     37.74100
  370     8     3     -0.17955      31.03700      43.98500     38.87200
  371     8     3     -0.17765      31.43400      42.50600     39.06500
  372     8     3     -0.19271      32.93200      42.25500     39.31900
  373     8     3     -0.18993      33.46600      42.92800     40.59400
  374     8     3     -0.18002      34.93700      42.57400     40.86600
  375     8     3     -0.17912      35.47800      43.16200     42.18000
  376     8     3     -0.23551      35.58300      44.69400     42.17100
  377     8     4     -0.12985      30.72100      44.15300     31.79000
  378     8     4     -0.06754      31.62500      43.18800     31.30400
  379     8     4     -0.06352      32.72000      42.78700     32.09300
  380     8     4     -0.12867      32.91700      43.34900     33.36800
  381     8     3     -0.13934      33.66000      41.74300     31.52300
  382     8     3     -0.16257      33.99900      41.99600     30.04000
  383     8     3     -0.16390      32.79300      42.43700     29.17200
  384     8     3     -0.13464      31.46000      42.55100     29.93900
  385     8     1      0.13193      29.87700      44.46300     31.19000
  386     8     1      0.13984      33.75500      43.03700     33.97400
  387     8     1      0.13868      30.21900      45.45300     33.43600
  388     8     2      0.09933      33.29100      45.00000     35.42200
  389     8     2      0.09933      31.84200      45.94400     35.22900
  390     8     2      0.09977      31.92700      43.09000     36.32100
  391     8     2      0.09977      30.47600      44.04400     36.14800
  392     8     2      0.09164      31.44800      45.76000     37.73400
  393     8     2      0.09164      32.84700      44.75700     37.95900
  394     8     2      0.09126      31.19100      44.52500     39.80700
  395     8     2      0.09126      29.96300      44.03800     38.68600
  396     8     2      0.09300      31.12300      41.93200     38.19100