LAMMPS data file of the system for full atom style

    4968 atoms
    5244 bonds
    9108 angles
   13386 dihedrals
    1932 impropers

    5 atom types
    7 bond types
   10 angle types
    6 dihedral types
    1 improper types

    0.000000    50.000000 xlo xhi
    0.000000    50.000000 ylo yhi
    0.000000    50.000000 zlo zhi

 Masses 

    1       1.0080
    2       1.0080
    3      12.0110
    4      12.0110
    5      12.0110

 Pair Coeffs 

    1       0.0300       2.4200
    2       0.0300       2.5000
    3       0.0660       3.5000
    4       0.0700       3.5500
    5       0.0800       3.5000

 Bond Coeffs 

    1     268.0000        1.5290
    2     317.0000        1.5100
    3     340.0000        1.0900
    4     367.0000        1.0800
    5     469.0000        1.4000
    6     469.0000        1.4040
    7     520.0000        1.3700

 Angle Coeffs 

    1      33.0000      107.8000
    2      35.0000      109.5000
    3      35.0000      120.0000
    4      37.5000      110.7000
    5      58.3500      112.7000
    6      63.0000      114.0000
    7      63.0000      120.0000
    8      70.0000      128.6000
    9      85.0000      117.3000
   10      85.0000      134.9000

 Dihedral Coeffs 

    1      -0.2500        0.0000       0.0000        0.0000
    2       0.0000        0.0000       0.0000        0.0000
    3       0.0000        0.0000       0.3000        0.0000
    4       0.0000        0.0000       0.4620        0.0000
    5       0.0000        7.2500       0.0000        0.0000
    6       0.8500       -0.2000       0.2000        0.0000

 Improper Coeffs 

    1       2.5000     -1     2

 Atoms 

    1     1     4     -0.04644      39.01500      36.30600     48.59300
    2     1     5     -0.02639      37.79000      35.67000     48.97800
    3     1     4     -0.13103      37.56800      34.26000     49.03000
    4     1     4     -0.13220      36.35100      33.66300     49.38700
    5     1     5     -0.02272      39.20900      37.72500     48.64700
    6     1     5     -0.04122      38.11700      38.53200     49.00800
    7     1     4     -0.12056      36.91900      37.87200     49.32100
    8     1     4     -0.12980      38.28700      39.94300     49.03600
    9     1     4     -0.12969      39.49400      40.58500     48.74000
   10     1     4     -0.13193      40.59100      39.79900     48.40100
   11     1     4     -0.13248      40.43200      38.40700     48.36300
   12     1     3     -0.15035      40.17500      35.43100     48.11700
   13     1     3     -0.18055      41.11400      34.98600     49.25100
   14     1     3     -0.18453      42.25200      34.06100     48.78900
   15     1     3     -0.24256      43.27500      34.75400     47.87900
   16     1     4     -0.13296      35.27800      34.48400     49.72100
   17     1     4     -0.13180      35.47300      35.86900     49.69200
   18     1     5     -0.03440      36.70300      36.48500     49.33700
   19     1     1      0.14174      34.32200      34.06400     50.00000
   20     1     1      0.13920      34.63900      36.50200     49.96000
   21     1     1      0.14888      38.37300      33.58500     48.79500
   22     1     1      0.12814      36.25000      32.58700     49.40600
   23     1     1      0.14746      36.08000      38.49400     49.59200
   24     1     1      0.14578      37.44100      40.55600     49.30800
   25     1     1      0.12993      39.57300      41.66200     48.77800
   26     1     1      0.13992      41.54500      40.25100     48.17400
   27     1     1      0.14169      41.31200      37.83700     48.11100
   28     1     2      0.10794      40.72600      35.95800     47.34200
   29     1     2      0.10794      39.79100      34.56700     47.58000
   30     1     2      0.09860      40.52300      34.46900     50.01000
   31     1     2      0.09860      41.52600      35.86300     49.75400
   32     1     2      0.08780      42.77200      33.68100     49.67000
   33     1     2      0.08780      41.84000      33.18500     48.28500
   34     1     2      0.08340      44.10100      34.08200     47.64400
   35     1     2      0.08340      43.69800      35.63800     48.35700
   36     1     2      0.08340      42.83300      35.06300     46.93100
   37     2     4     -0.04644      44.91200      43.06100      9.50000
   38     2     5     -0.02639      46.17000      42.94000      8.82600
   39     2     4     -0.13103      47.21900      43.90900      8.84400
   40     2     4     -0.13220      48.43300      43.77700      8.15600
   41     2     5     -0.02272      43.93300      42.01400      9.52000
   42     2     5     -0.04122      44.18500      40.85400      8.76900
   43     2     4     -0.12056      45.40300      40.80000      8.07600
   44     2     4     -0.12980      43.20800      39.82100      8.75600
   45     2     4     -0.12969      42.00500      39.88100      9.46700
   46     2     4     -0.13193      41.75100      41.01400     10.23300
   47     2     4     -0.13248      42.70400      42.04300     10.24700
   48     2     3     -0.15035      44.60400      44.36000     10.24500
   49     2     3     -0.18055      45.04900      44.34400     11.71700
   50     2     3     -0.18453      44.79200      45.66600     12.45800
   51     2     3     -0.24256      43.30200      45.98000     12.65400
   52     2     4     -0.13296      48.65000      42.62800      7.40200
   53     2     4     -0.13180      47.64600      41.65400      7.37800
   54     2     5     -0.03440      46.41400      41.77600      8.07600
   55     2     1      0.14174      49.57200      42.48700      6.85500
   56     2     1      0.13920      47.82100      40.76000      6.79800
   57     2     1      0.14888      47.10200      44.80800      9.42600
   58     2     1      0.12814      49.18500      44.55000      8.21200
   59     2     1      0.14746      45.59200      39.91100      7.49600
   60     2     1      0.14578      43.40600      38.93500      8.17100
   61     2     1      0.12993      41.29600      39.06700      9.42700
   62     2     1      0.13992      40.83900      41.10100     10.80600
   63     2     1      0.14169      42.47100      42.89500     10.86600
   64     2     2      0.10794      43.54100      44.57500     10.16300
   65     2     2      0.10794      45.05100      45.20200      9.72100
   66     2     2      0.09860      46.11600      44.11700     11.75600
   67     2     2      0.09860      44.56000      43.52000     12.24100
   68     2     2      0.08780      45.26700      45.61300     13.43900
   69     2     2      0.08780      45.28000      46.48900     11.93400
   70     2     2      0.08340      43.17300      46.88400     13.25200
   71     2     2      0.08340      42.78800      45.17000     13.17100
   72     2     2      0.08340      42.79500      46.14900     11.70400
   73     3     4     -0.04644      42.75700      46.13800     33.25400
   74     3     5     -0.02639      41.61000      46.94300     33.55300
   75     3     4     -0.13103      40.52300      46.56000     34.39800
   76     3     4     -0.13220      39.40000      47.35800     34.65500
   77     3     5     -0.02272      43.86100      46.61200     32.47300
   78     3     5     -0.04122      43.77100      47.89100     31.90100
   79     3     4     -0.12056      42.60500      48.62400     32.17100
   80     3     4     -0.12980      44.84600      48.36100     31.09900
   81     3     4     -0.12969      46.01000      47.62600     30.85400
   82     3     4     -0.13193      46.12500      46.36500     31.43100
   83     3     4     -0.13248      45.06700      45.88900     32.21800
   84     3     3     -0.15035      42.81300      44.71300     33.80600
   85     3     3     -0.18055      43.48100      44.61600     35.18800
   86     3     3     -0.18453      43.49300      43.19500     35.77400
   87     3     3     -0.24256      44.38800      42.21900     34.99800
   88     3     4     -0.13296      39.32400      48.61400     34.06000
   89     3     4     -0.13180      40.38200      49.02100     33.24100
   90     3     5     -0.03440      41.52800      48.22300     32.97700
   91     3     1      0.14174      38.47500      49.26000     34.23200
   92     3     1      0.13920      40.32300      50.00000     32.78800
   93     3     1      0.14888      40.54500      45.60300     34.89100
   94     3     1      0.12814      38.61200      47.00600     35.30400
   95     3     1      0.14746      42.53600      49.60500     31.72600
   96     3     1      0.14578      44.76600      49.34300     30.65700
   97     3     1      0.12993      46.80200      48.02900     30.23900
   98     3     1      0.13992      47.01000      45.76500     31.27700
   99     3     1      0.14169      45.20500      44.91300     32.65700
  100     3     2      0.10794      43.31600      44.07100     33.08700
  101     3     2      0.10794      41.81200      44.28800     33.83600
  102     3     2      0.09860      42.95400      45.27900     35.87700
  103     3     2      0.09860      44.49900      45.00700     35.13400
  104     3     2      0.08780      43.84700      43.24600     36.80500
  105     3     2      0.08780      42.47500      42.80400     35.82700
  106     3     2      0.08340      44.42600      41.24900     35.49700
  107     3     2      0.08340      45.41100      42.58900     34.92500
  108     3     2      0.08340      44.01900      42.04600     33.98700
  109     4     4     -0.04644       5.32100      18.15500     17.89300
  110     4     5     -0.02639       5.44100      19.16800     18.89900
  111     4     4     -0.13103       4.40700      19.57200     19.79800
  112     4     4     -0.13220       4.54300      20.58300     20.75900
  113     4     5     -0.02272       6.42200      17.72900     17.08000
  114     4     5     -0.04122       7.64900      18.39700     17.21800
  115     4     4     -0.12056       7.70700      19.42200     18.17500
  116     4     4     -0.12980       8.74000      18.00300     16.39600
  117     4     4     -0.12969       8.67200      16.96700     15.46000
  118     4     4     -0.13193       7.47000      16.28000     15.32600
  119     4     4     -0.13248       6.38500      16.66500     16.12600
  120     4     3     -0.15035       3.96100      17.48900     17.68500
  121     4     3     -0.18055       3.75500      16.23200     18.54600
  122     4     3     -0.18453       2.36900      15.58700     18.38300
  123     4     3     -0.24256       2.13600      14.97600     16.99400
  124     4     4     -0.13296       5.76200      21.24500     20.86300
  125     4     4     -0.13180       6.79800      20.85900     20.00500
  126     4     5     -0.03440       6.67300      19.83200     19.03100
  127     4     1      0.14174       5.90800      22.03200     21.58900
  128     4     1      0.13920       7.74500      21.37000     20.09400
  129     4     1      0.14888       3.45000      19.07800     19.76500
  130     4     1      0.12814       3.71800      20.84000     21.40800
  131     4     1      0.14746       8.65000      19.93800     18.27500
  132     4     1      0.14578       9.67900      18.52700     16.50400
  133     4     1      0.12993       9.53200      16.70300     14.86000
  134     4     1      0.13992       7.37300      15.46600     14.62200
  135     4     1      0.14169       5.47800      16.09500     15.99900
  136     4     2      0.10794       3.83200      17.26100     16.62900
  137     4     2      0.10794       3.16500      18.20800     17.86500
  138     4     2      0.09860       3.90000      16.50000     19.59400
  139     4     2      0.09860       4.53600      15.50100     18.32400
  140     4     2      0.08780       2.26200      14.79900     19.13100
  141     4     2      0.08780       1.58900      16.31700     18.60400
  142     4     2      0.08340       1.17400      14.46300     16.95400
  143     4     2      0.08340       2.90700      14.24600     16.74600
  144     4     2      0.08340       2.12800      15.73600     16.21200
  145     5     4     -0.04644      19.72500      27.92000     28.83200
  146     5     5     -0.02639      18.81200      27.93100     29.93600
  147     5     4     -0.13103      18.86200      28.82800     31.04700
  148     5     4     -0.13220      17.97000      28.80200     32.12700
  149     5     5     -0.02272      19.57100      27.05600     27.70000
  150     5     5     -0.04122      18.52700      26.11700     27.71700
  151     5     4     -0.12056      17.69000      26.12200     28.84300
  152     5     4     -0.12980      18.38100      25.23400     26.61300
  153     5     4     -0.12969      19.21300      25.25300     25.48900
  154     5     4     -0.13193      20.23800      26.19200     25.44600
  155     5     4     -0.13248      20.39600      27.06300     26.53300
  156     5     3     -0.15035      20.91200      28.88400     28.85600
  157     5     3     -0.18055      20.61100      30.24400     28.20300
  158     5     3     -0.18453      21.78200      31.23800     28.27200
  159     5     3     -0.24256      22.99200      30.82100     27.42500
  160     5     4     -0.13296      16.95600      27.84800     32.13100
  161     5     4     -0.13180      16.87400      26.96700     31.04800
  162     5     5     -0.03440      17.77000      26.98800     29.94600
  163     5     1      0.14174      16.24800      27.79300     32.94600
  164     5     1      0.13920      16.08100      26.23400     31.05200
  165     5     1      0.14888      19.62100      29.59200     31.08000
  166     5     1      0.12814      18.06500      29.51000     32.93800
  167     5     1      0.14746      16.89200      25.39600     28.85700
  168     5     1      0.14578      17.58000      24.50900     26.63800
  169     5     1      0.12993      19.05800      24.56100     24.67300
  170     5     1      0.13992      20.89900      26.25000     24.59300
  171     5     1      0.14169      21.19400      27.78300     26.45000
  172     5     2      0.10794      21.76900      28.40900     28.38400
  173     5     2      0.10794      21.25800      29.02100     29.87900
  174     5     2      0.09860      19.74300      30.68400     28.69900
  175     5     2      0.09860      20.30700      30.09500     27.16500
  176     5     2      0.08780      21.43200      32.21200     27.92200
  177     5     2      0.08780      22.08600      31.38600     29.30900
  178     5     2      0.08340      23.76200      31.59400     27.44300
  179     5     2      0.08340      22.71400      30.66000     26.38400
  180     5     2      0.08340      23.45000      29.90300     27.79600
  181     6     4     -0.04644      19.97900      32.77400     47.13200
  182     6     5     -0.02639      19.89700      31.35000     46.99900
  183     6     4     -0.13103      18.89100      30.63900     46.27500
  184     6     4     -0.13220      18.82100      29.24300     46.18100
  185     6     5     -0.02272      21.06300      33.43500     47.79400
  186     6     5     -0.04122      22.04300      32.64500     48.41800
  187     6     4     -0.12056      21.89400      31.25400     48.31400
  188     6     4     -0.12980      23.10800      33.28900     49.10500
  189     6     4     -0.12969      23.25300      34.67800     49.18400
  190     6     4     -0.13193      22.30300      35.47500     48.55300
  191     6     4     -0.13248      21.24400      34.85000     47.87900
  192     6     3     -0.15035      18.86500      33.62900     46.52600
  193     6     3     -0.18055      19.13700      34.05200     45.07300
  194     6     3     -0.18453      17.99800      34.86600     44.43900
  195     6     3     -0.24256      17.81100      36.25400     45.06800
  196     6     4     -0.13296      19.79100      28.48100     46.82500
  197     6     4     -0.13180      20.79700      29.15100     47.52800
  198     6     5     -0.03440      20.88100      30.56600     47.62700
  199     6     1      0.14174      19.77200      27.40100     46.77800
  200     6     1      0.13920      21.55200      28.55600     48.02000
  201     6     1      0.14888      18.12800      31.18700     45.74900
  202     6     1      0.12814      18.03100      28.76800     45.61600
  203     6     1      0.14746      22.64400      30.64900     48.79900
  204     6     1      0.14578      23.85300      32.67400     49.58800
  205     6     1      0.12993      24.08300      35.12000     49.71700
  206     6     1      0.13992      22.38000      36.55300     48.58000
  207     6     1      0.14169      20.54100      35.50700     47.39300
  208     6     2      0.10794      18.69900      34.49900     47.15800
  209     6     2      0.10794      17.91500      33.10500     46.59900
  210     6     2      0.09860      19.30600      33.15400     44.47500
  211     6     2      0.09860      20.07200      34.61300     45.02000
  212     6     2      0.08780      18.21000      34.99300     43.37500
  213     6     2      0.08780      17.06300      34.30500     44.49100
  214     6     2      0.08340      17.04700      36.82100     44.53400
  215     6     2      0.08340      18.73300      36.83400     45.03400
  216     6     2      0.08340      17.49300      36.18800     46.10900
  217     7     4     -0.04644      32.13800      38.95300     11.15000
  218     7     5     -0.02639      31.72400      40.31700     11.00500
  219     7     4     -0.13103      31.01200      40.85400      9.88900
  220     7     4     -0.13220      30.63900      42.19900      9.76100
  221     7     5     -0.02272      32.77100      38.45100     12.33400
  222     7     5     -0.04122      33.07800      39.36000     13.36000
  223     7     4     -0.12056      32.70800      40.69700     13.15300
  224     7     4     -0.12980      33.73300      38.88000     14.52700
  225     7     4     -0.12969      34.07900      37.54000     14.72700
  226     7     4     -0.13193      33.76200      36.62300     13.73000
  227     7     4     -0.13248      33.12300      37.08700     12.57100
  228     7     3     -0.15035      31.88100      37.98400      9.99600
  229     7     3     -0.18055      30.52400      37.26600     10.08800
  230     7     3     -0.18453      30.23400      36.33100      8.90300
  231     7     3     -0.24256      31.15800      35.10600      8.84700
  232     7     4     -0.13296      30.97300      43.08400     10.78100
  233     7     4     -0.13180      31.65800      42.58200     11.89200
  234     7     5     -0.03440      32.03600      41.22000     12.03600
  235     7     1      0.14174      30.70600      44.13000     10.72000
  236     7     1      0.13920      31.90800      43.27100     12.68600
  237     7     1      0.14888      30.71900      40.20400      9.08200
  238     7     1      0.12814      30.10100      42.54000      8.88800
  239     7     1      0.14746      32.95000      41.39400     13.94000
  240     7     1      0.14578      33.97200      39.58700     15.30800
  241     7     1      0.12993      34.57400      37.22400     15.63500
  242     7     1      0.13992      34.00200      35.57600     13.84500
  243     7     1      0.14169      32.88400      36.33900     11.83200
  244     7     2      0.10794      32.69600      37.26600      9.94300
  245     7     2      0.10794      31.97100      38.50700      9.04600
  246     7     2      0.09860      29.73500      38.01900     10.14700
  247     7     2      0.09860      30.46300      36.71100     11.02600
  248     7     2      0.08780      29.20100      35.98400      8.97700
  249     7     2      0.08780      30.29500      36.88600      7.96500
  250     7     2      0.08340      30.86200      34.43600      8.03800
  251     7     2      0.08340      31.12000      34.53600      9.77500
  252     7     2      0.08340      32.19500      35.38800      8.66600
  253     8     4     -0.04644       5.65100      15.31000     10.33100
  254     8     5     -0.02639       4.51700      14.51100      9.96900
  255     8     4     -0.13103       4.55400      13.33600      9.15800
  256     8     4     -0.13220       3.42700      12.58500      8.79900
  257     8     5     -0.02272       5.56500      16.42700     11.22300
  258     8     5     -0.04122       4.29800      16.80800     11.69300
  259     8     4     -0.12056       3.20700      16.03400     11.26800
  260     8     4     -0.12980       4.19600      17.93300     12.55500
  261     8     4     -0.12969       5.29500      18.68400     12.98500
  262     8     4     -0.13193       6.56000      18.30700     12.54600
  263     8     4     -0.13248       6.67100      17.20200     11.68900
  264     8     3     -0.15035       7.01700      14.94500      9.74900
  265     8     3     -0.18055       7.81300      13.96000     10.62200
  266     8     3     -0.18453       9.16400      13.54700     10.01700
  267     8     3     -0.24256      10.18200      14.69300      9.94800
  268     8     4     -0.13296       2.17900      12.99500      9.25900
  269     8     4     -0.13180       2.11500      14.13400     10.06900
  270     8     5     -0.03440       3.25200      14.89900     10.44300
  271     8     1      0.14174       1.28400      12.44500      9.00400
  272     8     1      0.13920       1.14600      14.44400     10.43000
  273     8     1      0.14888       5.49900      12.97200      8.79000
  274     8     1      0.12814       3.52500      11.70500      8.18000
  275     8     1      0.14746       2.23300      16.33300     11.62600
  276     8     1      0.14578       3.21600      18.22400     12.90600
  277     8     1      0.12993       5.16500      19.53100     13.64400
  278     8     1      0.13992       7.43900      18.85100     12.86000
  279     8     1      0.14169       7.67200      16.93800     11.38700
  280     8     2      0.10794       7.58600      15.85600      9.57400
  281     8     2      0.10794       6.89800      14.55100      8.74200
  282     8     2      0.09860       7.20700      13.06600     10.77900
  283     8     2      0.09860       7.96200      14.38600     11.61600
  284     8     2      0.08780       9.58600      12.74400     10.62500
  285     8     2      0.08780       9.01500      13.12100      9.02400
  286     8     2      0.08340      11.14700      14.33200      9.58700
  287     8     2      0.08340      10.34600      15.14100     10.92900
  288     8     2      0.08340       9.86000      15.48200      9.26800
  289     9     4     -0.04644      23.49300      20.99300     43.55200
  290     9     5     -0.02639      24.89000      21.22000     43.77900
  291     9     4     -0.13103      25.51700      22.49900     43.88500
  292     9     4     -0.13220      26.89000      22.69400     44.08400
  293     9     5     -0.02272      22.90600      19.68600     43.54500
  294     9     5     -0.04122      23.75400      18.57500     43.67900
  295     9     4     -0.12056      25.12200      18.83900     43.84100
  296     9     4     -0.12980      23.18700      17.27200     43.64500
  297     9     4     -0.12969      21.81800      17.02400     43.50100
  298     9     4     -0.13193      20.96200      18.11500     43.38900
  299     9     4     -0.13248      21.51100      19.40500     43.41400
  300     9     3     -0.15035      22.58500      22.20100     43.31900
  301     9     3     -0.18055      21.97400      22.76700     44.61200
  302     9     3     -0.18453      21.10300      24.01500     44.39300
  303     9     3     -0.24256      19.81200      23.73200     43.61200
  304     9     4     -0.13296      27.71300      21.57700     44.19300
  305     9     4     -0.13180      27.12300      20.31100     44.10800
  306     9     5     -0.03440      25.73200      20.10200     43.91100
  307     9     1      0.14174      28.77800      21.68300     44.34500
  308     9     1      0.13920      27.76500      19.44700     44.20100
  309     9     1      0.14888      24.91800      23.39200     43.82100
  310     9     1      0.12814      27.30100      23.69100     44.15400
  311     9     1      0.14746      25.77300      17.98300     43.93800
  312     9     1      0.14578      23.84700      16.42200     43.74100
  313     9     1      0.12993      21.43600      16.01400     43.48300
  314     9     1      0.13992      19.89600      17.97200     43.28600
  315     9     1      0.14169      20.80800      20.21900     43.33900
  316     9     2      0.10794      21.80700      21.93200     42.60800
  317     9     2      0.10794      23.12900      22.97600     42.78400
  318     9     2      0.09860      22.78400      23.01700     45.30000
  319     9     2      0.09860      21.39600      21.99100     45.11700
  320     9     2      0.08780      20.83700      24.42900     45.36700
  321     9     2      0.08780      21.68100      24.79000     43.88800
  322     9     2      0.08340      19.19300      24.62900     43.55300
  323     9     2      0.08340      19.21700      22.95600     44.09400
  324     9     2      0.08340      20.01600      23.41500     42.59000
  325    10     4     -0.04644      15.69500      10.47700     24.48100
  326    10     5     -0.02639      15.43400       9.82500     23.23200
  327    10     4     -0.13103      15.96100       8.56000     22.83000
  328    10     4     -0.13220      15.71000       7.95400     21.59100
  329    10     5     -0.02272      15.06500      11.70500     24.86700
  330    10     5     -0.04122      14.22300      12.34100     23.93900
  331    10     4     -0.12056      14.04100      11.69800     22.70600
  332    10     4     -0.12980      13.61600      13.57500     24.29900
  333    10     4     -0.12969      13.79200      14.19400     25.54000
  334    10     4     -0.13193      14.60500      13.56600     26.47800
  335    10     4     -0.13248      15.21600      12.35300     26.13200
  336    10     3     -0.15035      16.67800       9.82700     25.45400
  337    10     3     -0.18055      16.01200       8.85700     26.44400
  338    10     3     -0.18453      17.00200       8.15700     27.39000
  339    10     3     -0.24256      17.67200       9.10900     28.39000
  340    10     4     -0.13296      14.89000       8.61400     20.68100
  341    10     4     -0.13180      14.34800       9.84800     21.05400
  342    10     5     -0.03440      14.59100      10.46900     22.30900
  343    10     1      0.14174      14.67200       8.18200     19.71400
  344    10     1      0.13920      13.70500      10.35300     20.34800
  345    10     1      0.14888      16.59000       8.00600     23.50700
  346    10     1      0.12814      16.14200       6.99400     21.35000
  347    10     1      0.14746      13.39900      12.19200     21.99300
  348    10     1      0.14578      12.97600      14.06100     23.57700
  349    10     1      0.12993      13.30500      15.13200     25.76600
  350    10     1      0.13992      14.76300      14.00400     27.45400
  351    10     1      0.14169      15.82500      11.89500     26.89500
  352    10     2      0.10794      17.22600      10.60400     25.98200
  353    10     2      0.10794      17.46800       9.32300     24.90000
  354    10     2      0.09860      15.46900       8.09900     25.87700
  355    10     2      0.09860      15.25200       9.38500     27.02200
  356    10     2      0.08780      16.46500       7.38800     27.94800
  357    10     2      0.08780      17.76200       7.63000     26.81200
  358    10     2      0.08340      18.30200       8.55500     29.08800
  359    10     2      0.08340      16.93300       9.65400     28.97800
  360    10     2      0.08340      18.31000       9.83900     27.89100
  361    11     4     -0.04644      33.51900      27.47500     43.24700
  362    11     5     -0.02639      34.66400      27.76800     42.43800
  363    11     4     -0.13103      35.64000      26.81900     42.00500
  364    11     4     -0.13220      36.76600      27.13700     41.23300
  365    11     5     -0.02272      32.52300      28.45200     43.57500
  366    11     5     -0.04122      32.72900      29.77700     43.15700
  367    11     4     -0.12056      33.89300      30.03300     42.41700
  368    11     4     -0.12980      31.76400      30.76200     43.50100
  369    11     4     -0.12969      30.59900      30.48800     44.22500
  370    11     4     -0.13193      30.36900      29.17700     44.62700
  371    11     4     -0.13248      31.31800      28.19800     44.29900
  372    11     3     -0.15035      33.34100      26.05100     43.77400
  373    11     3     -0.18055      32.53200      25.14400     42.83200
  374    11     3     -0.18453      32.39600      23.69600     43.32900
  375    11     3     -0.24256      31.54100      23.55900     44.59700
  376    11     4     -0.13296      36.95900      28.46000     40.84900
  377    11     4     -0.13180      36.01100      29.40800     41.24600
  378    11     5     -0.03440      34.86300      29.09700     42.02500
  379    11     1      0.14174      37.81500      28.74800     40.25500
  380    11     1      0.13920      36.16000      30.43300     40.93900
  381    11     1      0.14888      35.52500      25.78100     42.26600
  382    11     1      0.12814      37.46700      26.36900     40.94000
  383    11     1      0.14746      34.05200      31.05300     42.10200
  384    11     1      0.14578      31.93400      31.78100     43.18200
  385    11     1      0.12993      29.89400      31.27300     44.45900
  386    11     1      0.13992      29.47800      28.91600     45.18000
  387    11     1      0.14169      31.09100      27.19300     44.61900
  388    11     2      0.10794      32.88700      26.08900     44.76100
  389    11     2      0.10794      34.31400      25.61000     43.98400
  390    11     2      0.09860      33.01500      25.13800     41.85300
  391    11     2      0.09860      31.54400      25.57600     42.66300
  392    11     2      0.08780      31.94000      23.09700     42.53700
  393    11     2      0.08780      33.38400      23.26400     43.49800