LAMMPS data file of the system for full atom style

    4961 atoms
    4840 bonds
    9438 angles
   13068 dihedrals

    2 atom types
    2 bond types
    3 angle types
    2 dihedral types

    0.000000    50.000000 xlo xhi
    0.000000    50.000000 ylo yhi
    0.000000    50.000000 zlo zhi

 Masses 

    1       1.0080
    2      12.0110

 Pair Coeffs 

    1       0.0300       2.5000
    2       0.0660       3.5000

 Bond Coeffs 

    1     268.0000        1.5290
    2     340.0000        1.0900

 Angle Coeffs 

    1      33.0000      107.8000
    2      37.5000      110.7000
    3      58.3500      112.7000

 Dihedral Coeffs 

    1       0.0000        0.0000       0.3000        0.0000
    2       0.8500       -0.2000       0.2000        0.0000

 Atoms 

    1     1     2     -0.19453       7.98800      35.83300     15.17000
    2     1     2     -0.18988       7.49200      35.04900     16.39600
    3     1     2     -0.18144       9.26500      36.64800     15.42900
    4     1     2     -0.16861      10.51300      35.77900     15.68000
    5     1     2     -0.15810      11.80200      36.59800     15.86700
    6     1     2     -0.16092      12.38100      37.20200     14.57000
    7     1     2     -0.17499      13.47100      36.34900     13.89500
    8     1     2     -0.23589      12.97900      34.99900     13.35900
    9     1     2     -0.19569       6.15600      34.34100     16.13000
   10     1     2     -0.18018       5.66600      33.53900     17.34500
   11     1     2     -0.16580       4.24100      32.97100     17.20600
   12     1     2     -0.16935       4.07000      31.91300     16.10000
   13     1     2     -0.23827       3.57500      32.48500     14.76400
   14     1     1      0.08022       4.26800      33.21100     14.34200
   15     1     1      0.08022       3.44900      31.69100     14.02700
   16     1     1      0.08022       2.61000      32.97800     14.88000
   17     1     1      0.08202       4.99900      31.35800     15.95700
   18     1     1      0.08202       3.33900      31.17600     16.43600
   19     1     1      0.08568       3.51900      33.77900     17.08000
   20     1     1      0.08568       3.98500      32.50600     18.15900
   21     1     1      0.08635       6.36600      32.72700     17.55500
   22     1     1      0.08635       5.68800      34.18300     18.22600
   23     1     1      0.09966       5.40000      35.07800     15.85100
   24     1     1      0.09966       6.27200      33.67200     15.27700
   25     1     1      0.09964       7.38300      35.72800     17.24300
   26     1     1      0.09964       8.23600      34.30700     16.68800
   27     1     1      0.08696       7.20200      36.52100     14.84900
   28     1     1      0.08696       8.14800      35.15400     14.33200
   29     1     1      0.09165       9.43900      37.28900     14.56500
   30     1     1      0.09165       9.10800      37.32400     16.27100
   31     1     1      0.08858      10.35700      35.18700     16.58200
   32     1     1      0.08858      10.63100      35.06100     14.87000
   33     1     1      0.08039      12.56200      35.97900     16.34700
   34     1     1      0.08039      11.60100      37.40200     16.57700
   35     1     1      0.08128      12.83100      38.16400     14.82100
   36     1     1      0.08128      11.59000      37.43500     13.85700
   37     1     1      0.07945      14.29700      36.18800     14.58800
   38     1     1      0.07945      13.88900      36.92000     13.06400
   39     1     1      0.08322      12.69300      34.32800     14.16900
   40     1     1      0.08322      12.11900      35.12100     12.69900
   41     1     1      0.08322      13.76300      34.49900     12.79000
   42     2     2     -0.19453       4.42800      37.87500     39.91800
   43     2     2     -0.18988       5.19400      38.66100     40.99400
   44     2     2     -0.18144       5.19000      36.65300     39.38100
   45     2     2     -0.16861       5.36800      35.53000     40.41900
   46     2     2     -0.15810       6.06800      34.28000     39.85500
   47     2     2     -0.16092       5.19100      33.40500     38.93500
   48     2     2     -0.17499       4.49300      32.22900     39.64200
   49     2     2     -0.23589       3.44600      32.64600     40.68300
   50     2     2     -0.19569       4.45100      39.93500     41.42200
   51     2     2     -0.18018       5.20200      40.71300     42.51300
   52     2     2     -0.16580       4.60500      42.09400     42.84000
   53     2     2     -0.16935       3.19500      42.06100     43.46000
   54     2     2     -0.23827       2.06300      42.22500     42.43500
   55     2     1      0.08022       2.05600      41.42700     41.69500
   56     2     1      0.08022       1.09100      42.21800     42.92900
   57     2     1      0.08022       2.15000      43.17100     41.90000
   58     2     1      0.08202       3.05500      41.14700     44.03900
   59     2     1      0.08202       3.11200      42.87900     44.17700
   60     2     1      0.08568       4.62300      42.73700     41.95900
   61     2     1      0.08568       5.27500      42.57300     43.55600
   62     2     1      0.08635       5.25600      40.11100     43.42300
   63     2     1      0.08635       6.23600      40.85900     42.19400
   64     2     1      0.09966       4.29700      40.57900     40.55500
   65     2     1      0.09966       3.46100      39.66100     41.79000
   66     2     1      0.09964       6.18300      38.92600     40.61700
   67     2     1      0.09964       5.35600      38.03200     41.87000
   68     2     1      0.08696       4.21400      38.54100     39.08000
   69     2     1      0.08696       3.45700      37.56200     40.30500
   70     2     1      0.09165       4.64500      36.26700     38.51900
   71     2     1      0.09165       6.16400      36.96500     38.99800
   72     2     1      0.08858       5.96800      35.90500     41.24800
   73     2     1      0.08858       4.40200      35.26600     40.84600
   74     2     1      0.08039       6.44800      33.67100     40.67700
   75     2     1      0.08039       6.95600      34.59900     39.30600
   76     2     1      0.08128       5.83600      32.98200     38.16300
   77     2     1      0.08128       4.46100      34.00800     38.39700
   78     2     1      0.07945       5.23600      31.58400     40.11100
   79     2     1      0.07945       4.00200      31.61500     38.88500
   80     2     1      0.08322       3.90800      33.13200     41.54200
   81     2     1      0.08322       2.71300      33.33400     40.25800
   82     2     1      0.08322       2.90400      31.77800     41.05800
   83     3     2     -0.19453      26.88700      24.40100     24.87200
   84     3     2     -0.18988      26.08200      23.09400     24.93000
   85     3     2     -0.18144      26.01900      25.66800     24.94100
   86     3     2     -0.16861      25.32800      25.87100     26.30300
   87     3     2     -0.15810      24.52000      27.17800     26.39100
   88     3     2     -0.16092      25.36900      28.45800     26.53700
   89     3     2     -0.17499      25.57200      28.93100     27.98800
   90     3     2     -0.23589      26.39200      27.97100     28.86000
   91     3     2     -0.19569      26.97100      21.85500     24.74400
   92     3     2     -0.18018      26.17400      20.54400     24.82200
   93     3     2     -0.16580      26.97600      19.28400     24.44900
   94     3     2     -0.16935      28.13700      18.94800     25.40300
   95     3     2     -0.23827      29.49600      19.49800     24.94600
   96     3     1      0.08022      29.50100      20.58500     24.88000
   97     3     1      0.08022      30.28300      19.21200     25.64400
   98     3     1      0.08022      29.77000      19.10700     23.96600
   99     3     1      0.08202      27.90900      19.28800     26.41500
  100     3     1      0.08202      28.22700      17.86300     25.47200
  101     3     1      0.08568      27.33100      19.34800     23.41900
  102     3     1      0.08568      26.27900      18.44400     24.45800
  103     3     1      0.08635      25.75400      20.42900     25.82400
  104     3     1      0.08635      25.31700      20.61100     24.14900
  105     3     1      0.09966      27.48400      21.91300     23.78300
  106     3     1      0.09966      27.74400      21.85500     25.51300
  107     3     1      0.09964      25.30900      23.10700     24.15900
  108     3     1      0.09964      25.56200      23.01800     25.88600
  109     3     1      0.08696      27.45500      24.42500     23.93900
  110     3     1      0.08696      27.62900      24.41900     25.67200
  111     3     1      0.09165      26.65700      26.52700     24.72700
  112     3     1      0.09165      25.27400      25.64900     24.14400
  113     3     1      0.08858      24.64500      25.04100     26.48000
  114     3     1      0.08858      26.06700      25.82500     27.10200
  115     3     1      0.08039      23.81400      27.11600     27.22100
  116     3     1      0.08039      23.89800      27.26000     25.49700
  117     3     1      0.08128      24.85800      29.26100     26.00300
  118     3     1      0.08128      26.33100      28.35100     26.03700
  119     3     1      0.07945      24.60600      29.11400     28.45700
  120     3     1      0.07945      26.07900      29.89700     27.96700
  121     3     1      0.08322      25.85600      27.04000     29.04100
  122     3     1      0.08322      27.34800      27.72800     28.39300
  123     3     1      0.08322      26.60400      28.41500     29.83200
  124     4     2     -0.19453       9.95800      14.07800     35.70000
  125     4     2     -0.18988      10.43300      14.11900     37.16200
  126     4     2     -0.18144       9.73200      12.65600     35.16200
  127     4     2     -0.16861       8.54700      11.92500     35.82100
  128     4     2     -0.15810       8.28000      10.53100     35.22700
  129     4     2     -0.16092       7.61200      10.53500     33.83600
  130     4     2     -0.17499       6.07800      10.40000     33.86100
  131     4     2     -0.23589       5.34700      11.58500     34.50700
  132     4     2     -0.19569      10.75600      15.54700     37.62700
  133     4     2     -0.18018      11.21100      15.59600     39.09400
  134     4     2     -0.16580      11.73400      16.96900     39.55500
  135     4     2     -0.16935      10.68300      18.09400     39.56400
  136     4     2     -0.23827      10.67000      18.94300     38.28400
  137     4     1      0.08022      10.43400      18.35400     37.39900
  138     4     1      0.08022       9.92600      19.73700     38.35400
  139     4     1      0.08022      11.63800      19.41600     38.11600
  140     4     1      0.08202       9.69000      17.68700     39.76000
  141     4     1      0.08202      10.89600      18.76200     40.40000
  142     4     1      0.08568      12.60700      17.26200     38.96900
  143     4     1      0.08568      12.10400      16.84700     40.57400
  144     4     1      0.08635      10.39300      15.27800     39.74300
  145     4     1      0.08635      12.00700      14.86500     39.24100
  146     4     1      0.09966      11.53200      15.97400     36.98900
  147     4     1      0.09966       9.86900      16.16900     37.50200
  148     4     1      0.09964      11.31700      13.49000     37.27500
  149     4     1      0.09964       9.66800      13.69700     37.81400
  150     4     1      0.08696      10.70400      14.56800     35.07200
  151     4     1      0.08696       9.04400      14.66300     35.58800
  152     4     1      0.09165       9.56100      12.72500     34.08700
  153     4     1      0.09165      10.64400      12.06800     35.27800
  154     4     1      0.08858       8.75400      11.80300     36.88500
  155     4     1      0.08858       7.65200      12.54300     35.76000
  156     4     1      0.08039       7.66900       9.94900     35.91900
  157     4     1      0.08039       9.22800       9.99300     35.16700
  158     4     1      0.08128       8.00200       9.68400     33.27500
  159     4     1      0.08128       7.90400      11.41300     33.26200
  160     4     1      0.07945       5.79400       9.47800     34.36700
  161     4     1      0.07945       5.72500      10.29500     32.83400
  162     4     1      0.08322       5.54700      11.64100     35.57700
  163     4     1      0.08322       5.64700      12.53200     34.05500
  164     4     1      0.08322       4.26900      11.48800     34.38500
  165     5     2     -0.19453      39.41500      31.33900     38.20200
  166     5     2     -0.18988      38.22900      31.27600     37.22500
  167     5     2     -0.18144      40.74800      31.71500     37.53500
  168     5     2     -0.16861      40.79000      33.16300     37.01100
  169     5     2     -0.15810      42.15100      33.55800     36.41000
  170     5     2     -0.16092      43.26800      33.81100     37.44400
  171     5     2     -0.17499      43.44700      35.28600     37.84800
  172     5     2     -0.23589      42.25200      35.88700     38.59900
  173     5     2     -0.19569      36.94200      30.78800     37.90600
  174     5     2     -0.18018      35.74800      30.74300     36.94000
  175     5     2     -0.16580      34.48500      30.07700     37.51500
  176     5     2     -0.16935      33.84100      30.82100     38.70000
  177     5     2     -0.23827      34.29000      30.30500     40.07500
  178     5     1      0.08022      35.36200      30.41700     40.23000
  179     5     1      0.08022      33.78700      30.84900     40.87500
  180     5     1      0.08022      34.04800      29.24900     40.19700
  181     5     1      0.08202      34.02100      31.89400     38.61900
  182     5     1      0.08202      32.75900      30.70100     38.63900
  183     5     1      0.08568      34.68600      29.03700     37.77700
  184     5     1      0.08568      33.75000      30.03000     36.70900
  185     5     1      0.08635      35.51000      31.75400     36.60400
  186     5     1      0.08635      36.04000      30.19500     36.04300
  187     5     1      0.09966      37.10600      29.79500     38.33000
  188     5     1      0.09966      36.70900      31.45000     38.74000
  189     5     1      0.09964      38.47600      30.61300     36.39500
  190     5     1      0.09964      38.05100      32.26100     36.79200
  191     5     1      0.08696      39.53300      30.36300     38.67700
  192     5     1      0.08696      39.19700      32.03900     39.00900
  193     5     1      0.09165      41.54400      31.57200     38.26600
  194     5     1      0.09165      40.96500      31.01900     36.72300
  195     5     1      0.08858      40.03400      33.28100     36.23400
  196     5     1      0.08858      40.51100      33.85200     37.80600
  197     5     1      0.08039      42.03200      34.44400     35.78400
  198     5     1      0.08039      42.46900      32.76900     35.72600
  199     5     1      0.08128      44.21100      33.47900     37.00600
  200     5     1      0.08128      43.13200      33.19100     38.33000
  201     5     1      0.07945      43.66300      35.88900     36.96600
  202     5     1      0.07945      44.33000      35.36400     38.48400
  203     5     1      0.08322      41.37800      35.97500     37.95400
  204     5     1      0.08322      41.97700      35.27900     39.46200
  205     5     1      0.08322      42.48600      36.88700     38.96200
  206     6     2     -0.19453      32.49500      19.62600     11.30900
  207     6     2     -0.18988      32.56000      19.64900     12.84500
  208     6     2     -0.18144      32.83900      18.26000     10.69400
  209     6     2     -0.16861      31.79600      17.16600     10.99500
  210     6     2     -0.15810      32.10800      15.82000     10.31700
  211     6     2     -0.16092      31.83400      15.78000      8.79800
  212     6     2     -0.17499      30.45100      15.22400      8.41000
  213     6     2     -0.23589      29.26900      16.08800      8.86700
  214     6     2     -0.19569      32.32300      21.05400     13.41500
  215     6     2     -0.18018      32.36500      21.07900     14.95100
  216     6     2     -0.16580      32.33000      22.48900     15.56900
  217     6     2     -0.16935      31.02600      23.27200     15.32600
  218     6     2     -0.23827      31.08200      24.20900     14.11100
  219     6     1      0.08022      31.25600      23.67100     13.18000
  220     6     1      0.08022      30.14400      24.75400     14.00000
  221     6     1      0.08022      31.87800      24.94700     14.21800
  222     6     1      0.08202      30.18100      22.58700     15.24000
  223     6     1      0.08202      30.81900      23.88300     16.20500
  224     6     1      0.08568      33.19500      23.07000     15.24400
  225     6     1      0.08568      32.45500      22.37100     16.64700
  226     6     1      0.08635      31.54300      20.48200     15.35000
  227     6     1      0.08635      33.27900      20.58600     15.28600
  228     6     1      0.09966      33.07100      21.74200     13.01800
  229     6     1      0.09966      31.35200      21.41600     13.07400
  230     6     1      0.09964      33.53300      19.28100     13.17400
  231     6     1      0.09964      31.81700      18.96700     13.25900
  232     6     1      0.08696      33.19600      20.36500     10.91500
  233     6     1      0.08696      31.50700      19.94300     10.97200
  234     6     1      0.09165      32.92700      18.38800      9.61500
  235     6     1      0.09165      33.82400      17.93800     11.03400
  236     6     1      0.08858      31.76000      16.99900     12.07200
  237     6     1      0.08858      30.80400      17.51500     10.71400
  238     6     1      0.08039      31.54300      15.02400     10.80600
  239     6     1      0.08039      33.15600      15.57600     10.49800
  240     6     1      0.08128      32.58300      15.13300      8.34000
  241     6     1      0.08128      31.98700      16.75900      8.34500
  242     6     1      0.07945      30.33600      14.21200      8.79900
  243     6     1      0.07945      30.41100      15.13000      7.32400
  244     6     1      0.08322      29.17100      16.08800      9.95300
  245     6     1      0.08322      29.37900      17.12100      8.53600
  246     6     1      0.08322      28.33200      15.70900      8.46000
  247     7     2     -0.19453       6.51100      15.73900     13.88200
  248     7     2     -0.18988       8.04300      15.78900     14.00100
  249     7     2     -0.18144       5.91600      14.34100     14.11800
  250     7     2     -0.16861       6.06200      13.84400     15.56800
  251     7     2     -0.15810       5.40000      12.47600     15.81600
  252     7     2     -0.16092       3.85900      12.50500     15.89200
  253     7     2     -0.17499       3.28900      12.61400     17.31800
  254     7     2     -0.23589       3.61100      13.93300     18.03200
  255     7     2     -0.19569       8.60700      17.17300     13.64800
  256     7     2     -0.18018      10.13600      17.23500     13.78600
  257     7     2     -0.16580      10.77400      18.53400     13.25800
  258     7     2     -0.16935      10.38500      19.80800     14.03000
  259     7     2     -0.23827       9.20600      20.57300     13.41100
  260     7     1      0.08022       8.29400      19.97800     13.38600
  261     7     1      0.08022       8.98900      21.47600     13.98200
  262     7     1      0.08022       9.42800      20.87900     12.38800
  263     7     1      0.08202      10.17900      19.57300     15.07500
  264     7     1      0.08202      11.24300      20.48100     14.04400
  265     7     1      0.08568      10.57300      18.65200     12.19100
  266     7     1      0.08568      11.85600      18.41400     13.33100
  267     7     1      0.08635      10.41700      17.08600     14.83000
  268     7     1      0.08635      10.57400      16.39800     13.24000
  269     7     1      0.09966       8.32200      17.43600     12.62700
  270     7     1      0.09966       8.15400      17.91900     14.30200
  271     7     1      0.09964       8.48400      15.03800     13.34500
  272     7     1      0.09964       8.34600      15.53000     15.01600
  273     7     1      0.08696       6.22400      16.06900     12.88100
  274     7     1      0.08696       6.05900      16.45300     14.57200
  275     7     1      0.09165       4.86000      14.37400     13.85100
  276     7     1      0.09165       6.37100      13.62500     13.43100
  277     7     1      0.08858       7.12100      13.75300     15.80700
  278     7     1      0.08858       5.66500      14.59000     16.25600
  279     7     1      0.08039       5.79800      12.03800     16.73300
  280     7     1      0.08039       5.70700      11.79500     15.02100
  281     7     1      0.08128       3.48600      11.57300     15.46400
  282     7     1      0.08128       3.44800      13.29200     15.26100
  283     7     1      0.07945       3.63900      11.77800     17.92300
  284     7     1      0.07945       2.20400      12.50600     17.26400
  285     7     1      0.08322       4.67600      14.01900     18.25000
  286     7     1      0.08322       3.31700      14.79400     17.42900
  287     7     1      0.08322       3.08200      14.00000     18.98200
  288     8     2     -0.19453      46.24500      37.04500     19.25200
  289     8     2     -0.18988      45.15200      37.74400     20.07700
  290     8     2     -0.18144      46.07200      35.52000     19.16000
  291     8     2     -0.16861      44.83900      35.08500     18.34500
  292     8     2     -0.15810      44.71200      33.55800     18.19400
  293     8     2     -0.16092      45.70100      32.92000     17.19700
  294     8     2     -0.17499      45.14300      32.72500     15.77500
  295     8     2     -0.23589      44.82800      34.03100     15.03300
  296     8     2     -0.19569      45.42100      39.24700     20.24000
  297     8     2     -0.18018      44.32000      39.95500     21.04600
  298     8     2     -0.16580      44.63400      41.41800     21.40800
  299     8     2     -0.16935      44.74300      42.37500     20.20700
  300     8     2     -0.23827      46.17900      42.58000     19.70400
  301     8     1      0.08022      46.63300      41.65300     19.35700
  302     8     1      0.08022      46.20000      43.28300     18.87000
  303     8     1      0.08022      46.81800      42.98600     20.48900
  304     8     1      0.08202      44.09800      42.04000     19.39300
  305     8     1      0.08202      44.35500      43.35100     20.50400
  306     8     1      0.08568      45.53100      41.47500     22.02800
  307     8     1      0.08568      43.82300      41.77200     22.04800
  308     8     1      0.08635      43.37600      39.90600     20.49900
  309     8     1      0.08635      44.15300      39.40600     21.97300
  310     8     1      0.09966      46.38500      39.39600     20.73000
  311     8     1      0.09966      45.49700      39.70300     19.25300
  312     8     1      0.09964      45.08200      37.27700     21.06000
  313     8     1      0.09964      44.18000      37.60600     19.60000
  314     8     1      0.08696      47.21600      37.25300     19.70500
  315     8     1      0.08696      46.28600      37.47200     18.24900
  316     8     1      0.09165      46.97100      35.10500     18.70500
  317     8     1      0.09165      46.02500      35.09200     20.16300
  318     8     1      0.08858      43.94000      35.45000     18.84100
  319     8     1      0.08858      44.85600      35.56500     17.36700
  320     8     1      0.08039      43.69100      33.30300     17.90400
  321     8     1      0.08039      44.84900      33.10200     19.17600
  322     8     1      0.08128      45.96900      31.93300     17.57700
  323     8     1      0.08128      46.63800      33.47500     17.16100
  324     8     1      0.07945      44.25000      32.10100     15.80900
  325     8     1      0.07945      45.87500      32.16400     15.19200
  326     8     1      0.08322      43.99100      34.55800     15.49100
  327     8     1      0.08322      45.68800      34.70100     15.02400
  328     8     1      0.08322      44.55400      33.83100     13.99700
  329     9     2     -0.19453      19.89100      29.75600     44.15600
  330     9     2     -0.18988      18.54600      29.19400     44.64300
  331     9     2     -0.18144      21.03500      29.59300     45.17100
  332     9     2     -0.16861      21.45400      28.12900     45.40100
  333     9     2     -0.15810      22.64700      27.97700     46.36100
  334     9     2     -0.16092      24.01600      28.36300     45.76200
  335     9     2     -0.17499      24.81800      27.18200     45.18500
  336     9     2     -0.23589      24.17500      26.51500     43.96200
  337     9     2     -0.19569      17.40700      29.47600     43.65200
  338     9     2     -0.18018      16.06300      28.89800     44.12300
  339     9     2     -0.16580      14.85200      29.31800     43.27100
  340     9     2     -0.16935      14.87000      28.80200     41.82000
  341     9     2     -0.23827      15.45600      29.80200     40.81200
  342     9     1      0.08022      16.49500      30.04600     41.02900
  343     9     1      0.08022      15.42300      29.39500     39.80100
  344     9     1      0.08022      14.89200      30.73400     40.80800
  345     9     1      0.08202      15.39600      27.84800     41.76100
  346     9     1      0.08202      13.84400      28.58900     41.51400
  347     9     1      0.08568      14.72600      30.40200     43.29200
  348     9     1      0.08568      13.96100      28.91900     43.75800
  349     9     1      0.08635      16.12600      27.80900     44.16200
  350     9     1      0.08635      15.88100      29.22000     45.15000
  351     9     1      0.09966      17.30800      30.55300     43.50300
  352     9     1      0.09966      17.66500      29.04800     42.68300
  353     9     1      0.09964      18.30000      29.62700     45.61300
  354     9     1      0.09964      18.62500      28.11700     44.79600
  355     9     1      0.08696      19.77200      30.82000     43.94100
  356     9     1      0.08696      20.17000      29.29000     43.20900
  357     9     1      0.09165      21.89100      30.16200     44.80800
  358     9     1      0.09165      20.75500      30.05400     46.11900
  359     9     1      0.08858      20.61100      27.58100     45.82300
  360     9     1      0.08858      21.67000      27.65300     44.44500
  361     9     1      0.08039      22.69000      26.95100     46.73100
  362     9     1      0.08039      22.45800      28.58800     47.24600
  363     9     1      0.08128      24.61700      28.80400     46.55800
  364     9     1      0.08128      23.91100      29.14900     45.01500
  365     9     1      0.07945      24.98900      26.43500     45.95900
  366     9     1      0.07945      25.80700      27.54600     44.90000
  367     9     1      0.08322      23.25200      26.00000     44.22800
  368     9     1      0.08322      23.94500      27.24600     43.18500
  369     9     1      0.08322      24.84500      25.77300     43.52800
  370    10     2     -0.19453      14.71800      43.58500     29.00400
  371    10     2     -0.18988      15.52500      44.89100     29.09300
  372    10     2     -0.18144      15.58800      42.33000     28.82100
  373    10     2     -0.16861      16.45500      41.99500     30.05000
  374    10     2     -0.15810      17.26800      40.69800     29.88900
  375    10     2     -0.16092      16.44600      39.39700     30.01000
  376    10     2     -0.17499      16.43900      38.77100     31.41600
  377    10     2     -0.23589      15.74300      39.62100     32.48700
  378    10     2     -0.19569      14.61900      46.12900     29.16000
  379    10     2     -0.18018      15.41900      47.43600     29.27100
  380    10     2     -0.16580      14.57400      48.71600     29.14400
  381    10     2     -0.16935      13.55100      48.93300     30.27500
  382    10     2     -0.23827      12.14300      48.41500     29.94700
  383    10     1      0.08022      12.12900      47.34100     29.76700
  384    10     1      0.08022      11.45600      48.61500     30.77000
  385    10     1      0.08022      11.74000      48.90300     29.06000
  386    10     1      0.08202      13.91200      48.49200     31.20500
  387    10     1      0.08202      13.47200      50.00400     30.47000
  388    10     1      0.08568      14.08400      48.75600     28.16900
  389    10     1      0.08568      15.26500      49.56000     29.15000
  390    10     1      0.08635      15.96900      47.45000     30.21400
  391    10     1      0.08635      16.17700      47.45200     28.48700
  392    10     1      0.09966      13.98100      46.16500     28.27500
  393    10     1      0.09966      13.95500      46.03600     30.02100
  394    10     1      0.09964      16.18600      44.97000     28.22900
  395    10     1      0.09964      16.16700      44.87200     29.97400
  396    10     1      0.08696      14.03100      43.65100     28.15800
  397    10     1      0.08696      14.09100      43.47200     29.88900
  398    10     1      0.09165      14.92800      41.49000     28.60400
  399    10     1      0.09165      16.22000      42.44400     27.93900
  400    10     1      0.08858      17.15600      42.81100     30.22200
  401    10     1      0.08858      15.83000      41.94600     30.94000
  402    10     1      0.08039      18.07800      40.68100     30.62000
  403    10     1      0.08039      17.76400      40.71900     28.91700
  404    10     1      0.08128      16.88000      38.66300     29.33000
  405    10     1      0.08128      15.42500      39.54200     29.65700