LAMMPS data file of the system for full atom style

    4940 atoms
    4864 bonds
    9576 angles
   13680 dihedrals

    2 atom types
    2 bond types
    3 angle types
    2 dihedral types

    0.000000    50.000000 xlo xhi
    0.000000    50.000000 ylo yhi
    0.000000    50.000000 zlo zhi

 Masses 

    1       1.0080
    2      12.0110

 Pair Coeffs 

    1       0.0300       2.5000
    2       0.0660       3.5000

 Bond Coeffs 

    1     268.0000        1.5290
    2     340.0000        1.0900

 Angle Coeffs 

    1      33.0000      107.8000
    2      37.5000      110.7000
    3      58.3500      112.7000

 Dihedral Coeffs 

    1       0.0000        0.0000       0.3000        0.0000
    2       0.8500       -0.2000       0.2000        0.0000

 Atoms 

    1     1     2     -0.17841      29.48200      23.31100     36.78100
    2     1     2     -0.17935      29.71700      24.43100     37.81200
    3     1     2     -0.20061      28.31000      22.38200     37.13200
    4     1     2     -0.18683      28.02600      21.35600     36.02600
    5     1     2     -0.17892      26.84800      20.43200     36.37500
    6     1     2     -0.17789      26.60900      19.31200     35.34500
    7     1     2     -0.18652      26.27600      19.79200     33.92000
    8     1     2     -0.18291      24.99300      20.63900     33.83700
    9     1     2     -0.17708      24.55900      20.95900     32.39700
   10     1     2     -0.17470      25.52600      21.89800     31.65700
   11     1     2     -0.20015      25.01000      22.28500     30.26400
   12     1     2     -0.24893      25.97600      23.21600     29.52100
   13     1     2     -0.18014      30.05900      23.95600     39.23700
   14     1     2     -0.17869      31.36200      23.14200     39.32400
   15     1     2     -0.18210      31.72500      22.70100     40.75500
   16     1     2     -0.19264      32.00600      23.84800     41.74800
   17     1     2     -0.16765      33.09700      24.84700     41.31100
   18     1     2     -0.12702      34.48700      24.23100     41.02400
   19     1     2     -0.24491      35.06400      23.52600     42.26300
   20     1     2     -0.17247      35.48500      25.28800     40.51000
   21     1     2     -0.24271      35.15100      25.83800     39.11500
   22     1     1      0.08100      34.22800      26.41900     39.11400
   23     1     1      0.08100      35.94300      26.49800     38.76000
   24     1     1      0.08100      35.04200      25.03400     38.38700
   25     1     1      0.09145      36.48100      24.84600     40.45900
   26     1     1      0.09145      35.56300      26.11200     41.22200
   27     1     1      0.10399      34.38100      23.47900     40.24100
   28     1     1      0.09568      32.73600      25.37600     40.43000
   29     1     1      0.09568      33.19800      25.61300     42.08100
   30     1     1      0.08626      32.26700      23.42200     42.71700
   31     1     1      0.08626      31.08300      24.39900     41.93100
   32     1     1      0.08953      30.92000      22.08100     41.15100
   33     1     1      0.08953      32.59500      22.04500     40.71200
   34     1     1      0.09203      32.18700      23.70500     38.88500
   35     1     1      0.09203      31.26400      22.24300     38.71500
   36     1     1      0.09074      30.14600      24.84100     39.86800
   37     1     1      0.09074      29.23200      23.38100     39.65300
   38     1     1      0.08845      30.51800      25.07900     37.45300
   39     1     1      0.08845      28.82900      25.06400     37.85500
   40     1     1      0.09371      29.28800      23.77600     35.81200
   41     1     1      0.09371      30.39400      22.72700     36.64500
   42     1     1      0.08991      28.52200      21.85400     38.06200
   43     1     1      0.08991      27.41400      22.97900     37.31200
   44     1     1      0.09786      27.81500      21.88300     35.09400
   45     1     1      0.09786      28.91900      20.75600     35.84600
   46     1     1      0.09149      27.03700      19.96800     37.34500
   47     1     1      0.09149      25.94000      21.02100     36.50700
   48     1     1      0.09123      27.49100      18.67100     35.30400
   49     1     1      0.09123      25.80100      18.67000     35.70200
   50     1     1      0.08970      26.16400      18.91500     33.28100
   51     1     1      0.08970      27.12200      20.34500     33.51100
   52     1     1      0.09136      25.11800      21.57000     34.39200
   53     1     1      0.09136      24.18200      20.10100     34.33200
   54     1     1      0.08851      23.57200      21.42400     32.43100
   55     1     1      0.08851      24.43300      20.03300     31.83300
   56     1     1      0.09775      25.68300      22.80000     32.25100
   57     1     1      0.09775      26.50200      21.42100     31.55900
   58     1     1      0.09244      24.84900      21.38500     29.66800
   59     1     1      0.09244      24.03800      22.77100     30.35200
   60     1     1      0.08248      26.95000      22.74700     29.37700
   61     1     1      0.08248      26.13100      24.14600     30.06800
   62     1     1      0.08248      25.58600      23.47500     28.53600
   63     1     1      0.08332      36.05400      23.11500     42.06100
   64     1     1      0.08332      34.43900      22.69100     42.57900
   65     1     1      0.08332      35.15500      24.21100     43.10700
   66     2     2     -0.17841      30.09600      36.30100     24.99900
   67     2     2     -0.17935      30.51200      37.42600     25.96500
   68     2     2     -0.20061      28.87700      36.64800     24.13100
   69     2     2     -0.18683      28.56600      35.55800     23.09700
   70     2     2     -0.17892      27.35000      35.90900     22.22500
   71     2     2     -0.17789      26.93300      34.78600     21.25600
   72     2     2     -0.18652      28.00400      34.37700     20.22800
   73     2     2     -0.18291      28.43100      35.52100     19.29200
   74     2     2     -0.17708      29.35600      35.06900     18.14900
   75     2     2     -0.17470      30.74200      34.60700     18.62600
   76     2     2     -0.20015      31.67700      34.26600     17.45700
   77     2     2     -0.24893      33.05800      33.79800     17.92900
   78     2     2     -0.18014      29.44800      37.83400     27.00100
   79     2     2     -0.17869      29.05000      36.69900     27.96200
   80     2     2     -0.18210      28.01500      37.11800     29.02300
   81     2     2     -0.19264      28.48300      38.20900     30.00800
   82     2     2     -0.16765      29.78600      37.89500     30.77100
   83     2     2     -0.12702      29.77000      36.59500     31.61000
   84     2     2     -0.24491      28.67300      36.62900     32.68800
   85     2     2     -0.17247      31.13900      36.31800     32.26300
   86     2     2     -0.24271      32.25000      35.96800     31.26100
   87     2     1      0.08100      32.50300      36.81000     30.61900
   88     2     1      0.08100      33.16300      35.67900     31.78400
   89     2     1      0.08100      31.95900      35.13300     30.62300
   90     2     1      0.09145      31.04300      35.48100     32.95500
   91     2     1      0.09145      31.44700      37.17100     32.87100
   92     2     1      0.10399      29.55100      35.75600     30.94900
   93     2     1      0.09568      30.60000      37.86000     30.04700
   94     2     1      0.09568      30.02200      38.73800     31.42200
   95     2     1      0.08626      27.68300      38.41200     30.71900
   96     2     1      0.08626      28.61400      39.14700     29.46800
   97     2     1      0.08953      27.10900      37.46000     28.52100
   98     2     1      0.08953      27.71100      36.23400     29.58700
   99     2     1      0.09203      29.93700      36.28700     28.44400
  100     2     1      0.09203      28.62100      35.87700     27.38700
  101     2     1      0.09074      29.85000      38.66700     27.57900
  102     2     1      0.09074      28.56200      38.22700     26.50100
  103     2     1      0.08845      31.42000      37.12500     26.48900
  104     2     1      0.08845      30.79200      38.30600     25.38300
  105     2     1      0.09371      30.94400      36.08200     24.34700
  106     2     1      0.09371      29.91100      35.37900     25.55200
  107     2     1      0.08991      28.00300      36.79700     24.76600
  108     2     1      0.08991      29.05300      37.59600     23.61800
  109     2     1      0.09786      29.44100      35.40500     22.46300
  110     2     1      0.09786      28.38700      34.61000     23.60800
  111     2     1      0.09149      26.50100      36.13200     22.87500
  112     2     1      0.09149      27.54200      36.82900     21.67300
  113     2     1      0.09123      26.64300      33.90700     21.83400
  114     2     1      0.09123      26.02900      35.09500     20.72600
  115     2     1      0.08970      27.60500      33.55800     19.62700
  116     2     1      0.08970      28.87100      33.96600     20.74400
  117     2     1      0.09136      28.92100      36.31300     19.86000
  118     2     1      0.09136      27.53800      35.97400     18.85600
  119     2     1      0.08851      29.48100      35.90500     17.45800
  120     2     1      0.08851      28.87400      34.27600     17.57500
  121     2     1      0.09775      31.19500      35.38700     19.23900
  122     2     1      0.09775      30.63900      33.73200     19.26900
  123     2     1      0.09244      31.22500      33.48800     16.83900
  124     2     1      0.09244      31.79400      35.13800     16.81100
  125     2     1      0.08248      32.98400      32.90100     18.54500
  126     2     1      0.08248      33.55800      34.56800     18.51800
  127     2     1      0.08248      33.70100      33.56300     17.08000
  128     2     1      0.08332      28.68200      35.72000     33.29200
  129     2     1      0.08332      27.67800      36.70000     32.24900
  130     2     1      0.08332      28.80100      37.47600     33.36300
  131     3     2     -0.17841      13.02800      34.34900     12.79000
  132     3     2     -0.17935      11.85900      33.44400     12.35600
  133     3     2     -0.20061      13.53800      35.27700     11.67700
  134     3     2     -0.18683      14.61700      36.24900     12.17500
  135     3     2     -0.17892      15.12200      37.18000     11.06200
  136     3     2     -0.17789      16.29000      38.08900     11.49300
  137     3     2     -0.18652      15.97600      39.05300     12.65200
  138     3     2     -0.18291      14.84300      40.04600     12.34000
  139     3     2     -0.17708      14.65700      41.12700     13.41900
  140     3     2     -0.17470      14.14400      40.57500     14.76000
  141     3     2     -0.20015      13.86600      41.68900     15.77900
  142     3     2     -0.24893      13.36100      41.14300     17.12000
  143     3     2     -0.18014      12.16900      32.47100     11.20300
  144     3     2     -0.17869      13.27700      31.45400     11.53000
  145     3     2     -0.18210      13.55900      30.45600     10.39100
  146     3     2     -0.19264      12.38400      29.52800     10.01900
  147     3     2     -0.16765      11.79900      28.70400     11.18400
  148     3     2     -0.12702      12.80200      27.78400     11.91900
  149     3     2     -0.24491      13.42400      26.74700     10.96900
  150     3     2     -0.17247      12.14900      27.07100     13.12000
  151     3     2     -0.24271      11.76500      28.01100     14.27300
  152     3     1      0.08100      10.96700      28.69700     13.99200
  153     3     1      0.08100      11.40800      27.44100     15.13200
  154     3     1      0.08100      12.61800      28.60400     14.60300
  155     3     1      0.09145      12.84500      26.33000     13.51800
  156     3     1      0.09145      11.27200      26.50900     12.79500
  157     3     1      0.10399      13.61500      28.39700     12.31000
  158     3     1      0.09568      11.34300      29.39700     11.89000
  159     3     1      0.09568      10.97300      28.10100     10.80500
  160     3     1      0.08626      12.70100      28.85800      9.22000
  161     3     1      0.08626      11.58400      30.12200      9.57700
  162     3     1      0.08953      13.86800      31.00800      9.50200
  163     3     1      0.08953      14.42300      29.84600     10.66300
  164     3     1      0.09203      13.03400      30.91700     12.44800
  165     3     1      0.09203      14.20400      31.98900     11.74000
  166     3     1      0.09074      11.24900      31.93500     10.96500
  167     3     1      0.09074      12.42600      33.02400     10.29900
  168     3     1      0.08845      11.51600      32.87200     13.22000
  169     3     1      0.08845      11.01300      34.07100     12.07000
  170     3     1      0.09371      12.69200      34.95700     13.63200
  171     3     1      0.09371      13.84800      33.74400     13.17800
  172     3     1      0.08991      13.94500      34.68200     10.85800
  173     3     1      0.08991      12.70200      35.84300     11.26200
  174     3     1      0.09786      14.21200      36.84300     12.99600
  175     3     1      0.09786      15.45500      35.68400     12.58700
  176     3     1      0.09149      15.45600      36.57500     10.21700
  177     3     1      0.09149      14.29900      37.78400     10.68000
  178     3     1      0.09123      17.14100      37.46600     11.77200
  179     3     1      0.09123      16.62400      38.66600     10.62900
  180     3     1      0.08970      16.88400      39.61300     12.88600
  181     3     1      0.08970      15.74500      38.48300     13.55200
  182     3     1      0.09136      13.90100      39.51300     12.19700
  183     3     1      0.09136      15.05500      40.53900     11.39000
  184     3     1      0.08851      13.94500      41.86500     13.04600
  185     3     1      0.08851      15.59400      41.66400     13.57000
  186     3     1      0.09775      13.23300      39.99900     14.59200
  187     3     1      0.09775      14.87500      39.88200     15.17800
  188     3     1      0.09244      14.77500      42.27000     15.94700
  189     3     1      0.09244      13.12900      42.38500     15.37400
  190     3     1      0.08248      14.09100      40.47300     17.57600
  191     3     1      0.08248      12.43000      40.58800     16.99700
  192     3     1      0.08248      13.17200      41.95300     17.82400
  193     3     1      0.08332      14.11300      26.08700     11.49900
  194     3     1      0.08332      13.99900      27.22200     10.17500
  195     3     1      0.08332      12.66100      26.12400     10.50200
  196     4     2     -0.17841      32.58300      33.62300     25.84300
  197     4     2     -0.17935      31.44500      32.85200     25.14900
  198     4     2     -0.20061      33.63600      32.71500     26.49800
  199     4     2     -0.18683      34.81700      33.51000     27.07200
  200     4     2     -0.17892      35.87300      32.60000     27.72100
  201     4     2     -0.17789      37.01400      33.36700     28.41400
  202     4     2     -0.18652      37.84500      34.27900     27.49300
  203     4     2     -0.18291      38.55700      33.52500     26.35600
  204     4     2     -0.17708      39.53400      34.40000     25.55200
  205     4     2     -0.17470      38.84000      35.49700     24.72800
  206     4     2     -0.20015      39.82900      36.28300     23.85400
  207     4     2     -0.24893      39.14100      37.38200     23.03700
  208     4     2     -0.18014      30.60400      31.94500     26.06700
  209     4     2     -0.17869      29.86300      32.70600     27.18100
  210     4     2     -0.18210      28.99100      31.80500     28.07500
  211     4     2     -0.19264      27.82700      31.09000     27.35800
  212     4     2     -0.16765      26.85600      32.01300     26.59400
  213     4     2     -0.12702      26.17400      33.11200     27.44300
  214     4     2     -0.24491      25.33800      32.50900     28.58500
  215     4     2     -0.17247      25.29400      34.03800     26.57900
  216     4     2     -0.24271      26.08500      34.91900     25.60100
  217     4     1      0.08100      26.57600      34.33100     24.82600
  218     4     1      0.08100      25.42400      35.62500     25.09700
  219     4     1      0.08100      26.85000      35.49800     26.11900
  220     4     1      0.09145      24.72300      34.70000     27.23200
  221     4     1      0.09145      24.55300      33.45200     26.03100
  222     4     1      0.10399      26.94700      33.73200     27.89800
  223     4     1      0.09568      27.40400      32.46800     25.76800
  224     4     1      0.09568      26.08900      31.39900     26.12000
  225     4     1      0.08626      27.27200      30.49800     28.08500
  226     4     1      0.08626      28.23200      30.35600     26.66000
  227     4     1      0.08953      29.62500      31.05500     28.55100
  228     4     1      0.08953      28.59200      32.40300     28.89600
  229     4     1      0.09203      29.25800      33.50500     26.75100
  230     4     1      0.09203      30.59200      33.20300     27.82200
  231     4     1      0.09074      29.87700      31.42500     25.44300
  232     4     1      0.09074      31.22800      31.16300     26.50100
  233     4     1      0.08845      30.78400      33.56700     24.65600
  234     4     1      0.08845      31.86700      32.24500     24.34500
  235     4     1      0.09371      33.07300      34.25100     25.09700
  236     4     1      0.09371      32.17500      34.31400     26.58200
  237     4     1      0.08991      33.17600      32.13300     27.29700
  238     4     1      0.08991      34.00500      31.99600     25.76300
  239     4     1      0.09786      35.27700      34.09500     26.27400
  240     4     1      0.09786      34.45100      34.22700     27.80800
  241     4     1      0.09149      35.38600      31.96800     28.46500
  242     4     1      0.09149      36.27900      31.91400     26.97800
  243     4     1      0.09123      36.59800      33.96900     29.22400
  244     4     1      0.09123      37.67900      32.64900     28.89900
  245     4     1      0.08970      38.59400      34.79000     28.10100
  246     4     1      0.08970      37.21200      35.06700     27.08700
  247     4     1      0.09136      37.82500      33.08500     25.67700
  248     4     1      0.09136      39.11300      32.68700     26.78000
  249     4     1      0.08851      40.09700      33.75400     24.87600
  250     4     1      0.08851      40.26900      34.84600     26.22300
  251     4     1      0.09775      38.07200      35.04800     24.09600
  252     4     1      0.09775      38.32300      36.18900     25.39400
  253     4     1      0.09244      40.59900      36.73200     24.48400
  254     4     1      0.09244      40.34600      35.60100     23.17800
  255     4     1      0.08248      38.64700      38.10800     23.68300
  256     4     1      0.08248      38.39000      36.96700     22.36500
  257     4     1      0.08248      39.86500      37.92300     22.42600
  258     4     1      0.08332      24.84000      33.28800     29.16500
  259     4     1      0.08332      25.95600      31.94800     29.28500
  260     4     1      0.08332      24.56800      31.83600     28.20500
  261     5     2     -0.17841      41.69500      26.48900     24.10800
  262     5     2     -0.17935      40.56100      27.49700     24.37400
  263     5     2     -0.20061      43.00800      26.82900     24.83000
  264     5     2     -0.18683      44.07600      25.74300     24.64300
  265     5     2     -0.17892      45.38700      26.08200     25.37100
  266     5     2     -0.17789      46.52200      25.07400     25.10800
  267     5     2     -0.18652      46.23100      23.62800     25.54900
  268     5     2     -0.18291      45.96300      23.48400     27.05800
  269     5     2     -0.17708      45.85900      22.02300     27.52900
  270     5     2     -0.17470      44.62300      21.28900     26.98500
  271     5     2     -0.20015      44.48900      19.87100     27.55900
  272     5     2     -0.24893      43.26100      19.13300     27.01300
  273     5     2     -0.18014      40.84300      28.94400     23.92700
  274     5     2     -0.17869      41.07300      29.09100     22.41200
  275     5     2     -0.18210      41.31600      30.54300     21.95900
  276     5     2     -0.19264      40.14000      31.51400     22.19200
  277     5     2     -0.16765      38.79600      31.08400     21.57000
  278     5     2     -0.12702      38.81400      30.85400     20.04000
  279     5     2     -0.24491      39.21700      32.12900     19.27900
  280     5     2     -0.17247      37.45400      30.34200     19.52200
  281     5     2     -0.24271      37.09900      28.92400     19.99500
  282     5     1      0.08100      36.93200      28.88100     21.07000
  283     5     1      0.08100      36.18400      28.57600     19.51400
  284     5     1      0.08100      37.89000      28.21500     19.74800
  285     5     1      0.09145      37.46600      30.33300     18.43200
  286     5     1      0.09145      36.65800      31.03400     19.80400
  287     5     1      0.10399      39.55600      30.08900     19.81000
  288     5     1      0.09568      38.46400      30.17900     22.07700
  289     5     1      0.09568      38.04300      31.83500     21.81000
  290     5     1      0.08626      40.41600      32.50100     21.82100
  291     5     1      0.08626      39.99800      31.65500     23.26400
  292     5     1      0.08953      42.20000      30.93100     22.46800
  293     5     1      0.08953      41.57500      30.54300     20.89900
  294     5     1      0.09203      40.23500      28.66200     21.86200
  295     5     1      0.09203      41.94500      28.50300     22.12300
  296     5     1      0.09074      39.98900      29.55400     24.22100
  297     5     1      0.09074      41.69400      29.35000     24.47400
  298     5     1      0.08845      39.65200      27.14500     23.88200
  299     5     1      0.08845      40.33100      27.49700     25.44100
  300     5     1      0.09371      41.35700      25.50400     24.43300
  301     5     1      0.09371      41.87100      26.39600     23.03500
  302     5     1      0.08991      43.39600      27.77900     24.46100
  303     5     1      0.08991      42.81200      26.96700     25.89500
  304     5     1      0.09786      43.68700      24.79200     25.00900
  305     5     1      0.09786      44.27400      25.60600     23.57800
  306     5     1      0.09149      45.72500      27.06800     25.05000
  307     5     1      0.09149      45.20400      26.17000     26.44200
  308     5     1      0.09123      46.76200      25.07700     24.04300
  309     5     1      0.09123      47.42700      25.42400     25.60900
  310     5     1      0.08970      47.08900      23.00900     25.28200
  311     5     1      0.08970      45.39400      23.23000     24.97600
  312     5     1      0.09136      45.05200      24.01800     27.33400
  313     5     1      0.09136      46.77200      23.96900     27.60900
  314     5     1      0.08851      45.82300      22.01600     28.62000
  315     5     1      0.08851      46.76600      21.48200     27.25700
  316     5     1      0.09775      43.72500      21.86300     27.22000
  317     5     1      0.09775      44.67500      21.23200     25.89700
  318     5     1      0.09244      45.38700      19.29400     27.32800
  319     5     1      0.09244      44.42700      19.91700     28.64700
  320     5     1      0.08248      43.30800      19.03100     25.92800
  321     5     1      0.08248      42.33900      19.66000     27.26000
  322     5     1      0.08248      43.19000      18.13000     27.43600
  323     5     1      0.08332      39.20400      31.96700     18.20000
  324     5     1      0.08332      40.22800      32.44700     19.53300
  325     5     1      0.08332      38.54200      32.95600     19.49700
  326     6     2     -0.17841      36.02900      23.19800      3.48600
  327     6     2     -0.17935      36.78000      24.23300      4.34500
  328     6     2     -0.20061      36.59300      21.77300      3.60000
  329     6     2     -0.18683      35.74900      20.74800      2.83100
  330     6     2     -0.17892      36.31000      19.32200      2.95100
  331     6     2     -0.17789      35.56000      18.28400      2.09500
  332     6     2     -0.18652      34.06800      18.11000      2.43400
  333     6     2     -0.18291      33.81200      17.64100      3.87700
  334     6     2     -0.17708      32.34200      17.28700      4.15900
  335     6     2     -0.17470      31.40000      18.50100      4.12200
  336     6     2     -0.20015      29.96100      18.13400      4.51300
  337     6     2     -0.24893      29.01700      19.34100      4.47000
  338     6     2     -0.18014      38.27200      24.41700      4.00400
  339     6     2     -0.17869      38.52300      24.92400      2.57300
  340     6     2     -0.18210      40.01200      25.14500      2.24500
  341     6     2     -0.19264      40.72000      26.22700      3.08700
  342     6     2     -0.16765      40.05700      27.62000      3.06500
  343     6     2     -0.12702      39.89800      28.25900      1.66500
  344     6     2     -0.24491      41.25700      28.45100      0.97100
  345     6     2     -0.17247      39.14900      29.60500      1.73300
  346     6     2     -0.24271      37.67000      29.47800      2.13000
  347     6     1      0.08100      37.55100      29.13200      3.15700
  348     6     1      0.08100      37.16800      30.44300      2.05800
  349     6     1      0.08100      37.14200      28.78300      1.47700
  350     6     1      0.09145      39.18700      30.08600      0.75400
  351     6     1      0.09145      39.65700      30.28600      2.41700
  352     6     1      0.10399      39.30600      27.59000      1.04100
  353     6     1      0.09568      39.08500      27.53800      3.54900
  354     6     1      0.09568      40.63500      28.29100      3.70100
  355     6     1      0.08626      41.75600      26.30900      2.76000
  356     6     1      0.08626      40.78600      25.89000      4.12200
  357     6     1      0.08953      40.54700      24.20200      2.36100
  358     6     1      0.08953      40.10600      25.39800      1.18700
  359     6     1      0.09203      37.95900      25.84000      2.39400
  360     6     1      0.09203      38.13200      24.19600      1.86100
  361     6     1      0.09074      38.68800      25.13200      4.71500
  362     6     1      0.09074      38.81600      23.48800      4.17200
  363     6     1      0.08845      36.27600      25.19700      4.25800
  364     6     1      0.08845      36.69200      23.95200      5.39600
  365     6     1      0.09371      34.98400      23.19100      3.80000
  366     6     1      0.09371      36.01700      23.51300      2.44200
  367     6     1      0.08991      37.61500      21.75000      3.22100
  368     6     1      0.08991      36.64600      21.48500      4.65100
  369     6     1      0.09786      34.72500      20.77200      3.20700
  370     6     1      0.09786      35.69700      21.03300      1.77900
  371     6     1      0.09149      37.35700      19.32600      2.64100
  372     6     1      0.09149      36.31800      19.01200      3.99600
  373     6     1      0.09123      35.65300      18.55500      1.04200
  374     6     1      0.09123      36.06100      17.31900      2.19100
  375     6     1      0.08970      33.64200      17.38000      1.74400
  376     6     1      0.08970      33.53500      19.04100      2.23900
  377     6     1      0.09136      34.14300      18.40000      4.58700
  378     6     1      0.09136      34.42400      16.75900      4.07600
  379     6     1      0.08851      32.28400      16.82500      5.14600
  380     6     1      0.08851      32.00200      16.52800      3.45300
  381     6     1      0.09775      31.77500      19.27400      4.79500
  382     6     1      0.09775      31.39900      18.93800      3.12200
  383     6     1      0.09244      29.58400      17.35900      3.84400
  384     6     1      0.09244      29.95000      17.70400      5.51600
  385     6     1      0.08248      28.97100      19.77400      3.47000
  386     6     1      0.08248      29.34000      20.12300      5.15800
  387     6     1      0.08248      28.00400      19.05300      4.75200
  388     6     1      0.08332      41.14100      28.92500     -0.00600
  389     6     1      0.08332      41.75900      27.50000      0.79600
  390     6     1      0.08332      41.92500      29.07700      1.56400
  391     7     2     -0.17841      30.52700      12.82300     24.29200
  392     7     2     -0.17935      31.01200      14.05700     23.51000
  393     7     2     -0.20061      29.83300      11.76800     23.41600
  394     7     2     -0.18683      29.47300      10.50000     24.20200
  395     7     2     -0.17892      28.78600       9.44300     23.32300
  396     7     2     -0.17789      28.30100       8.20500     24.10200
  397     7     2     -0.18652      29.40600       7.40900     24.82100
  398     7     2     -0.18291      30.47600       6.84100     23.87100
  399     7     2     -0.17708      31.47100       5.89200     24.56000
  400     7     2     -0.17470      32.38700       6.59400     25.57600
  401     7     2     -0.20015      33.43900       5.64400     26.16600
  402     7     2     -0.24893      34.34900       6.33900     27.18500
  403     7     2     -0.18014      29.90900      14.86300     22.79600
  404     7     2     -0.17869      28.86200      15.46200     23.75200
  405     7     2     -0.18210      27.78200      16.30000     23.04200