LAMMPS data file of the system for full atom style

    4998 atoms
    5236 bonds
    8568 angles
   11900 dihedrals
    2380 impropers

    5 atom types
    6 bond types
    7 angle types
    2 dihedral types
    1 improper types

    0.000000    50.000000 xlo xhi
    0.000000    50.000000 ylo yhi
    0.000000    50.000000 zlo zhi

 Masses 

    1       1.0080
    2       1.0080
    3      12.0110
    4      12.0110
    5      12.0110

 Pair Coeffs 

    1       0.0300       2.4200
    2       0.0300       2.5000
    3       0.0660       3.5000
    4       0.0700       3.5500
    5       0.0800       3.5000

 Bond Coeffs 

    1     317.0000        1.5100
    2     340.0000        1.0900
    3     367.0000        1.0800
    4     469.0000        1.4000
    5     469.0000        1.4040
    6     520.0000        1.3700

 Angle Coeffs 

    1      33.0000      107.8000
    2      35.0000      109.5000
    3      35.0000      120.0000
    4      63.0000      120.0000
    5      70.0000      120.0000
    6      85.0000      117.3000
    7      85.0000      134.9000

 Dihedral Coeffs 

    1       0.0000        0.0000       0.0000        0.0000
    2       0.0000        7.2500       0.0000        0.0000

 Improper Coeffs 

    1       2.5000     -1     2

 Atoms 

    1     1     5     -0.03902      35.99400      23.02000     11.47600
    2     1     5     -0.04206      36.32900      23.92500     10.44000
    3     1     4     -0.12962      34.92900      23.37500     12.34500
    4     1     4     -0.12644      34.19800      24.56600     12.23300
    5     1     4     -0.12752      36.74700      21.81900     11.57200
    6     1     4     -0.07363      37.79600      21.48500     10.70200
    7     1     4     -0.12642      38.12600      22.38000      9.68400
    8     1     4     -0.12193      37.39500      23.56900      9.57200
    9     1     3     -0.20050      38.55500      20.18600     10.87200
   10     1     4     -0.13370      34.52700      25.45700     11.21200
   11     1     4     -0.12379      35.57400      25.12500     10.34400
   12     1     1      0.13092      33.98500      26.38500     11.09500
   13     1     1      0.13958      35.82100      25.82300      9.55800
   14     1     1      0.13322      34.66500      22.69200     13.13800
   15     1     1      0.14276      33.39500      24.78600     12.92100
   16     1     1      0.13779      36.49600      21.12700     12.36200
   17     1     1      0.13479      38.92800      22.16700      8.99200
   18     1     1      0.14255      37.66000      24.25300      8.77900
   19     1     2      0.09434      39.07000      19.90600      9.95200
   20     1     2      0.09434      37.87700      19.37500     11.13800
   21     1     2      0.09434      39.30000      20.28600     11.66300
   22     2     5     -0.03902      37.46700      36.88300      5.66100
   23     2     5     -0.04206      36.58100      35.78100      5.58900
   24     2     4     -0.12962      37.01500      38.12800      5.15000
   25     2     4     -0.12644      35.74700      38.32300      4.58300
   26     2     4     -0.12752      38.74600      36.66400      6.23900
   27     2     4     -0.07363      39.17400      35.42600      6.74000
   28     2     4     -0.12642      38.29900      34.34000      6.66500
   29     2     4     -0.12193      37.03300      34.53600      6.09900
   30     2     3     -0.20050      40.55600      35.27100      7.33900
   31     2     4     -0.13370      34.87400      37.23800      4.51300
   32     2     4     -0.12379      35.30100      36.00100      5.01100
   33     2     1      0.13092      33.89000      37.35000      4.08300
   34     2     1      0.13958      34.61600      35.16700      4.95200
   35     2     1      0.13322      37.68200      38.97500      5.20000
   36     2     1      0.14276      35.45400      39.29300      4.21000
   37     2     1      0.13779      39.42500      37.50200      6.29400
   38     2     1      0.13479      38.58600      33.36700      7.03500
   39     2     1      0.14255      36.36600      33.68800      6.04800
   40     2     2      0.09434      40.61000      34.39400      7.98500
   41     2     2      0.09434      40.81600      36.14500      7.93600
   42     2     2      0.09434      41.29900      35.16100      6.54800
   43     3     5     -0.03902      30.15500      45.49400     16.07400
   44     3     5     -0.04206      29.47900      46.33500     15.15800
   45     3     4     -0.12962      29.67300      44.16700     16.23200
   46     3     4     -0.12644      28.57100      43.65200     15.53500
   47     3     4     -0.12752      31.26900      46.03500     16.76900
   48     3     4     -0.07363      31.73200      47.34900     16.59700
   49     3     4     -0.12642      31.06100      48.17700     15.69700
   50     3     4     -0.12193      29.96100      47.66100     15.00000
   51     3     3     -0.20050      32.92500      47.85400     17.37900
   52     3     4     -0.13370      27.90500      44.48000     14.63300
   53     3     4     -0.12379      28.36500      45.79200     14.46200
   54     3     1      0.13092      27.05200      44.11800     14.07800
   55     3     1      0.13958      27.84100      46.42500     13.76100
   56     3     1      0.13322      30.18200      43.51700     16.92800
   57     3     1      0.14276      28.24700      42.63400     15.69400
   58     3     1      0.13779      31.78700      45.39700     17.46900
   59     3     1      0.13479      31.37900      49.19700     15.53400
   60     3     1      0.14255      29.45100      48.31300     14.30500
   61     3     2      0.09434      33.37200      48.72600     16.89800
   62     3     2      0.09434      33.69200      47.08300     17.45400
   63     3     2      0.09434      32.62200      48.13800     18.38800
   64     4     5     -0.03902      15.51400      17.51800     23.01700
   65     4     5     -0.04206      15.38800      17.49400     21.60700
   66     4     4     -0.12962      15.05700      16.38500     23.74000
   67     4     4     -0.12644      14.49100      15.25300     23.13700
   68     4     4     -0.12752      16.09100      18.67400     23.60900
   69     4     4     -0.07363      16.53800      19.78400     22.87600
   70     4     4     -0.12642      16.41000      19.75900     21.48700
   71     4     4     -0.12193      15.84500      18.62800     20.88400
   72     4     3     -0.20050      17.13900      20.98200     23.58100
   73     4     4     -0.13370      14.36700      15.23000     21.74800
   74     4     4     -0.12379      14.81200      16.33700     21.01600
   75     4     1      0.13092      13.93600      14.37500     21.24800
   76     4     1      0.13958      14.71100      16.30800     19.94100
   77     4     1      0.13322      15.14800      16.39300     24.81600
   78     4     1      0.14276      14.15900      14.41800     23.73500
   79     4     1      0.13779      16.18700      18.69600     24.68400
   80     4     1      0.13479      16.73800      20.59200     20.88200
   81     4     1      0.14255      15.75200      18.62100     19.80800
   82     4     2      0.09434      17.74600      21.57800     22.89800
   83     4     2      0.09434      17.77700      20.66400     24.40600
   84     4     2      0.09434      16.34900      21.61800     23.98100
   85     5     5     -0.03902      29.92200      46.35800     20.36400
   86     5     5     -0.04206      29.93800      45.12000     19.67700
   87     5     4     -0.12962      31.17000      46.92000     20.74200
   88     5     4     -0.12644      32.40700      46.31900     20.47200
   89     5     4     -0.12752      28.65800      46.95000     20.62600
   90     5     4     -0.07363      27.43500      46.37900     20.24400
   91     5     4     -0.12642      27.45300      45.15800     19.56900
   92     5     4     -0.12193      28.69000      44.55800     19.30000
   93     5     3     -0.20050      26.12700      47.07100     20.56400
   94     5     4     -0.13370      32.42400      45.10100     19.79500
   95     5     4     -0.12379      31.20400      44.52900     19.41300
   96     5     1      0.13092      33.35800      44.60700     19.57000
   97     5     1      0.13958      31.22800      43.58400     18.89000
   98     5     1      0.13322      31.16900      47.86400     21.26600
   99     5     1      0.14276      33.32800      46.79100     20.78200
  100     5     1      0.13779      28.64100      47.89300     21.15100
  101     5     1      0.13479      26.53600      44.67900     19.25800
  102     5     1      0.14255      28.69100      43.61300     18.77700
  103     5     2      0.09434      25.32300      46.71500     19.91800
  104     5     2      0.09434      26.21600      48.14800     20.42400
  105     5     2      0.09434      25.84300      46.88000     21.60000
  106     6     5     -0.03902      13.53400      12.07000     15.34900
  107     6     5     -0.04206      14.74300      12.59700     15.86300
  108     6     4     -0.12962      13.46000      10.66700     15.14200
  109     6     4     -0.12644      14.51300       9.78300     15.41900
  110     6     4     -0.12752      12.48000      12.98200     15.07600
  111     6     4     -0.07363      12.57200      14.36600     15.28800
  112     6     4     -0.12642      13.76600      14.88300     15.79200
  113     6     4     -0.12193      14.81700      14.00000     16.06900
  114     6     3     -0.20050      11.40400      15.27400     14.96800
  115     6     4     -0.13370      15.70300      10.30200     15.92600
  116     6     4     -0.12379      15.79700      11.68300     16.13700
  117     6     1      0.13092      16.53600       9.65200     16.15100
  118     6     1      0.13958      16.72400      12.07400     16.53000
  119     6     1      0.13322      12.54300      10.25400     14.75100
  120     6     1      0.14276      14.40300       8.72300     15.24400
  121     6     1      0.13779      11.55700      12.58400     14.68200
  122     6     1      0.13479      13.88300      15.94300     15.96900
  123     6     1      0.14255      15.73500      14.41300     16.46000
  124     6     2      0.09434      11.48500      16.22400     15.50000
  125     6     2      0.09434      10.46200      14.80700     15.25700
  126     6     2      0.09434      11.37100      15.48300     13.89800
  127     7     5     -0.03902      47.92400      41.02300      5.29900
  128     7     5     -0.04206      48.64900      40.01800      5.98200
  129     7     4     -0.12962      47.98100      42.34500      5.81500
  130     7     4     -0.12644      48.71100      42.70400      6.95600
  131     7     4     -0.12752      47.19100      40.63900      4.14400
  132     7     4     -0.07363      47.14800      39.32700      3.64900
  133     7     4     -0.12642      47.86100      38.33700      4.32600
  134     7     4     -0.12193      48.59100      38.69600      5.46700
  135     7     3     -0.20050      46.33900      38.99500      2.41300
  136     7     4     -0.13370      49.42600      41.71400      7.62900
  137     7     4     -0.12379      49.38300      40.40300      7.13700
  138     7     1      0.13092      50.00000      41.95200      8.51300
  139     7     1      0.13958      49.94000      39.64400      7.66600
  140     7     1      0.13322      47.43200      43.11900      5.30100
  141     7     1      0.14276      48.72000      43.72600      7.30500
  142     7     1      0.13779      46.63500      41.40200      3.62100
  143     7     1      0.13479      47.85600      37.31200      3.98400
  144     7     1      0.14255      49.14000      37.92000      5.98100
  145     7     2      0.09434      46.67800      38.06300      1.95800
  146     7     2      0.09434      46.43300      39.78500      1.66800
  147     7     2      0.09434      45.28500      38.88600      2.67000
  148     8     5     -0.03902      13.18800      22.02800     39.51200
  149     8     5     -0.04206      14.43300      21.42300     39.80400
  150     8     4     -0.12962      12.39000      22.45800     40.60500
  151     8     4     -0.12644      12.76700      22.31600     41.94700
  152     8     4     -0.12752      12.82400      22.16400     38.14500
  153     8     4     -0.07363      13.62700      21.73300     37.07900
  154     8     4     -0.12642      14.85300      21.13300     37.36900
  155     8     4     -0.12193      15.23000      20.99200     38.71100
  156     8     3     -0.20050      13.16700      21.90900     35.64700
  157     8     4     -0.13370      13.99400      21.72000     42.23500
  158     8     4     -0.12379      14.79700      21.28900     41.17200
  159     8     1      0.13092      14.31900      21.59300     43.25800
  160     8     1      0.13958      15.74500      20.82800     41.40600
  161     8     1      0.13322      11.43800      22.92200     40.39300
  162     8     1      0.14276      12.12200      22.66200     42.74100
  163     8     1      0.13779      11.87400      22.62400     37.91800
  164     8     1      0.13479      15.50400      20.78300     36.58100
  165     8     1      0.14255      16.18200      20.52600     38.92200
  166     8     2      0.09434      14.00900      21.86600     34.95400
  167     8     2      0.09434      12.67500      22.87200     35.51600
  168     8     2      0.09434      12.46200      21.12100     35.37800
  169     9     5     -0.03902       5.09000      44.55900     24.70000
  170     9     5     -0.04206       5.99800      44.75300     25.76900
  171     9     4     -0.12962       5.35200      45.23500     23.47900
  172     9     4     -0.12644       6.45400      46.07800     23.27800
  173     9     4     -0.12752       3.98000      43.70000     24.92500
  174     9     4     -0.07363       3.73900      43.04000     26.13900
  175     9     4     -0.12642       4.63400      43.23600     27.19200
  176     9     4     -0.12193       5.73500      44.07800     26.99000
  177     9     3     -0.20050       2.53000      42.14300     26.30200
  178     9     4     -0.13370       7.34900      46.26900     24.33000
  179     9     4     -0.12379       7.10800      45.61200     25.54300
  180     9     1      0.13092       8.20900      46.91200     24.21200
  181     9     1      0.13958       7.80700      45.76700     26.35100
  182     9     1      0.13322       4.66600      45.09300     22.65800
  183     9     1      0.14276       6.60600      46.56700     22.32700
  184     9     1      0.13779       3.28500      43.55100     24.11300
  185     9     1      0.13479       4.48700      42.75100     28.14600
  186     9     1      0.14255       6.42000      44.22100     27.81200
  187     9     2      0.09434       2.66500      41.44600     27.13100
  188     9     2      0.09434       2.35900      41.56000     25.39800
  189     9     2      0.09434       1.64100      42.74200     26.50000
  190    10     5     -0.03902      34.81600      44.97500      7.13700
  191    10     5     -0.04206      33.82600      44.11500      6.60400
  192    10     4     -0.12962      34.38300      46.06400      7.93900
  193    10     4     -0.12644      33.03700      46.33000      8.22800
  194    10     4     -0.12752      36.17300      44.68700      6.83300
  195    10     4     -0.07363      36.58200      43.60500      6.03900
  196    10     4     -0.12642      35.60400      42.76100      5.51200
  197    10     4     -0.12193      34.25900      43.02700      5.80100
  198    10     3     -0.20050      38.05000      43.36600      5.75700
  199    10     4     -0.13370      32.06200      45.48300      7.70300
  200    10     4     -0.12379      32.46800      44.40300      6.90900
  201    10     1      0.13092      31.01400      45.65700      7.90300
  202    10     1      0.13958      31.70400      43.75400      6.50700
  203    10     1      0.13322      35.12900      46.72500      8.35100
  204    10     1      0.14276      32.76200      47.17300      8.84500
  205    10     1      0.13779      36.93100      45.34100      7.23700
  206    10     1      0.13479      35.87100      41.91600      4.89300
  207    10     1      0.14255      33.51200      42.36600      5.38700
  208    10     2      0.09434      38.23100      42.33500      5.45000
  209    10     2      0.09434      38.65000      43.56100      6.64600
  210    10     2      0.09434      38.39200      44.02600      4.95900
  211    11     5     -0.03902      38.41000      47.36400     35.94900
  212    11     5     -0.04206      39.26200      46.30000     35.56800
  213    11     4     -0.12962      38.96600      48.67000     35.99700
  214    11     4     -0.12644      40.30300      48.95800     35.68800
  215    11     4     -0.12752      37.06000      47.05000     36.25700
  216    11     4     -0.07363      36.52900      45.75300     36.20300
  217    11     4     -0.12642      37.37100      44.70500     35.83000
  218    11     4     -0.12193      38.70700      44.99400     35.52200
  219    11     3     -0.20050      35.07700      45.49800     36.55100
  220    11     4     -0.13370      41.14200      47.91000     35.31200
  221    11     4     -0.12379      40.61300      46.61400     35.25900
  222    11     1      0.13092      42.17800      48.09400     35.06700
  223    11     1      0.13958      41.27200      45.81000     34.96700
  224    11     1      0.13322      38.32500      49.48900     36.28600
  225    11     1      0.14276      40.67300      49.97100     35.74000
  226    11     1      0.13779      36.40700      47.85900     36.55000
  227    11     1      0.13479      37.00800      43.68800     35.77800
  228    11     1      0.14255      39.34800      44.17400     35.23300
  229    11     2      0.09434      34.73100      44.55200     36.13200
  230    11     2      0.09434      34.44200      46.29100     36.15700
  231    11     2      0.09434      34.95100      45.45900     37.63300
  232    12     5     -0.03902      43.19300      32.20100     34.66300
  233    12     5     -0.04206      41.96900      31.66200     34.19900
  234    12     4     -0.12962      44.27400      31.30300     34.86900
  235    12     4     -0.12644      44.19400      29.92300     34.63800
  236    12     4     -0.12752      43.25300      33.60200     34.89100
  237    12     4     -0.07363      42.17400      34.47300     34.68000
  238    12     4     -0.12642      40.96700      33.93900     34.22500
  239    12     4     -0.12193      40.88800      32.55900     33.99400
  240    12     3     -0.20050      42.31500      35.95600     34.94900
  241    12     4     -0.13370      42.98900      29.39200     34.18000
  242    12     4     -0.12379      41.91000      30.26000     33.97000
  243    12     1      0.13092      42.88900      28.33300     33.99100
  244    12     1      0.13958      40.98100      29.83800     33.61600
  245    12     1      0.13322      45.21200      31.70300     35.22300
  246    12     1      0.14276      45.04800      29.28500     34.81100
  247    12     1      0.13779      44.18400      34.01600     35.24700
  248    12     1      0.13479      40.10800      34.57000     34.05100
  249    12     1      0.14255      39.94900      32.15900     33.64100
  250    12     2      0.09434      41.55200      36.52800     34.42000
  251    12     2      0.09434      43.29100      36.31500     34.62300
  252    12     2      0.09434      42.21400      36.15600     36.01700
  253    13     5     -0.03902      44.67900      16.74500     24.37400
  254    13     5     -0.04206      45.94500      16.43400     24.92600
  255    13     4     -0.12962      43.97500      15.70600     23.70900
  256    13     4     -0.12644      44.46400      14.40000     23.57200
  257    13     4     -0.12752      44.20200      18.07500     24.52400
  258    13     4     -0.07363      44.91200      19.08700     25.18600
  259    13     4     -0.12642      46.16100      18.77900     25.72700
  260    13     4     -0.12193      46.64800      17.47300     25.59100
  261    13     3     -0.20050      44.33700      20.48300     25.30200
  262    13     4     -0.13370      45.71000      14.09300     24.11600
  263    13     4     -0.12379      46.42100      15.10300     24.77700
  264    13     1      0.13092      46.11900      13.09700     24.03000
  265    13     1      0.13958      47.38500      14.85500     25.19400
  266    13     1      0.13322      43.00900      15.93300     23.28400
  267    13     1      0.14276      43.88600      13.64700     23.05600
  268    13     1      0.13779      43.23800      18.31600     24.10300
  269    13     1      0.13479      46.74500      19.52700     26.24300
  270    13     1      0.14255      47.61600      17.24700     26.01500
  271    13     2      0.09434      44.80700      21.03800     26.11600
  272    13     2      0.09434      43.26600      20.44400     25.49800
  273    13     2      0.09434      44.49900      21.03500     24.37500
  274    14     5     -0.03902      25.49500      21.07100     20.81000
  275    14     5     -0.04206      24.19300      20.96600     21.35400
  276    14     4     -0.12962      26.23500      22.25100     21.08700
  277    14     4     -0.12644      25.74600      23.31000     21.86600
  278    14     4     -0.12752      25.97200      19.98700     20.02400
  279    14     4     -0.07363      25.22600      18.82800     19.76200
  280    14     4     -0.12642      23.94100      18.72900     20.29700
  281    14     4     -0.12193      23.45400      19.78600     21.07500
  282    14     3     -0.20050      25.80200      17.71600     18.91100
  283    14     4     -0.13370      24.46400      23.20700     22.40200
  284    14     4     -0.12379      23.71800      22.05100     22.14000
  285    14     1      0.13092      24.05400      24.00300     23.00700
  286    14     1      0.13958      22.72500      21.98200     22.56000
  287    14     1      0.13322      27.22900      22.34100     20.67700
  288    14     1      0.14276      26.35200      24.18500     22.04600
  289    14     1      0.13779      26.96400      20.06400     19.60600
  290    14     1      0.13479      23.32900      17.85600     20.11900
  291    14     1      0.14255      22.45800      19.69700     21.48400
  292    14     2      0.09434      25.28300      16.77300     19.08900
  293    14     2      0.09434      26.85800      17.56500     19.13800
  294    14     2      0.09434      25.70800      17.96400     17.85300
  295    15     5     -0.03902      13.57700       5.50800      5.46700
  296    15     5     -0.04206      12.95900       6.75800      5.70700
  297    15     4     -0.12962      13.68100       4.60200      6.55500
  298    15     4     -0.12644      13.20600       4.87900      7.84500
  299    15     4     -0.12752      14.05100       5.24700      4.15300
  300    15     4     -0.07363      13.93900       6.15600      3.09000
  301    15     4     -0.12642      13.33100       7.38900      3.33000
  302    15     4     -0.12193      12.85700       7.66400      4.61900
  303    15     3     -0.20050      14.47200       5.80500      1.71700
  304    15     4     -0.13370      12.59600       6.11000      8.08200
  305    15     4     -0.12379      12.48400       7.01800      7.02200
  306    15     1      0.13092      12.21800       6.35900      9.06300
  307    15     1      0.13958      12.01100       7.96900      7.21600
  308    15     1      0.13322      14.15000       3.64600      6.38300
  309    15     1      0.14276      13.31000       4.15200      8.63800
  310    15     1      0.13779      14.52500       4.29500      3.96700
  311    15     1      0.13479      13.22500       8.12100      2.54200
  312    15     1      0.14255      12.38800       8.62200      4.79100
  313    15     2      0.09434      14.01100       6.42300      0.94500
  314    15     2      0.09434      14.26700       4.76200      1.47900
  315    15     2      0.09434      15.55100       5.96200      1.68100
  316    16     5     -0.03902      28.10200       5.70100     12.98800
  317    16     5     -0.04206      27.30400       6.70700     12.39400
  318    16     4     -0.12962      27.51600       4.42200     13.18000
  319    16     4     -0.12644      26.20000       4.10600     12.81500
  320    16     4     -0.12752      29.43200       6.04100     13.35000
  321    16     4     -0.07363      29.99400       7.31100     13.15100
  322    16     4     -0.12642      29.20400       8.30300     12.56700
  323    16     4     -0.12193      27.89000       7.98700     12.20200
  324    16     3     -0.20050      31.42100       7.59800     13.56800
  325    16     4     -0.13370      25.41400       5.09700     12.22900
  326    16     4     -0.12379      25.97300       6.36600     12.03000
  327    16     1      0.13092      24.39500       4.89100     11.93400
  328    16     1      0.13958      25.35500       7.12600     11.57600
  329    16     1      0.13322      28.11500       3.64600     13.63300
  330    16     1      0.14276      25.80400       3.11500     12.98400
  331    16     1      0.13779      30.04300       5.27600     13.80600
  332    16     1      0.13479      29.59300       9.29700     12.39700
  333    16     1      0.14255      27.28900       8.76300     11.75100
  334    16     2      0.09434      31.81800       8.46900     13.04500
  335    16     2      0.09434      32.06600       6.74900     13.34300
  336    16     2      0.09434      31.46800       7.79200     14.64000
  337    17     5     -0.03902      42.16200      43.02200     13.78200
  338    17     5     -0.04206      41.02000      43.66900     14.31100
  339    17     4     -0.12962      43.25500      43.83600     13.38200
  340    17     4     -0.12644      43.26200      45.23400     13.48400
  341    17     4     -0.12752      42.13500      41.60500     13.68800
  342    17     4     -0.07363      41.04500      40.81800     14.08900
  343    17     4     -0.12642      39.91900      41.45800     14.60800
  344    17     4     -0.12193      39.92600      42.85500     14.70900
  345    17     3     -0.20050      41.09100      39.31100     13.95400
  346    17     4     -0.13370      42.13700      45.87100     14.00500
  347    17     4     -0.12379      41.04800      45.08700     14.40500
  348    17     1      0.13092      42.10600      46.94700     14.09900
  349    17     1      0.13958      40.18100      45.59000     14.80700
  350    17     1      0.13322      44.13200      43.35400     12.97800
  351    17     1      0.14276      44.12200      45.80500     13.16500
  352    17     1      0.13779      43.00500      41.10900     13.28300
  353    17     1      0.13479      39.05400      40.89300     14.92700
  354    17     1      0.14255      39.04800      43.33700     15.11300
  355    17     2      0.09434      40.36200      38.83300     14.61000
  356    17     2      0.09434      42.07800      38.93000     14.21600
  357    17     2      0.09434      40.87000      39.01800     12.92700
  358    18     5     -0.03902      45.84800       3.26400     14.65300
  359    18     5     -0.04206      45.27700       4.06900     15.66800
  360    18     4     -0.12962      45.20200       2.03700     14.34200
  361    18     4     -0.12644      44.03900       1.58600     14.98200
  362    18     4     -0.12752      47.02500       3.73800     14.01700
  363    18     4     -0.07363      47.64800       4.95400     14.33800
  364    18     4     -0.12642      47.08600       5.74500     15.34100
  365    18     4     -0.12193      45.92300       5.29400     15.97900
  366    18     3     -0.20050      48.90500       5.39100     13.61600
  367    18     4     -0.13370      43.47700       2.38000     15.98100
  368    18     4     -0.12379      44.09800       3.59300     16.30300
  369    18     1      0.13092      42.58100       2.06500     16.49600
  370    18     1      0.13958      43.65400       4.20000     17.07800
  371    18     1      0.13322      45.62800       1.41500     13.57000
  372    18     1      0.14276      43.58800       0.64500     14.70500
  373    18     1      0.13779      47.46400       3.12600     13.24400
  374    18     1      0.13479      47.53200       6.68800     15.62300
  375    18     1      0.14255      45.49800       5.91600     16.75300
  376    18     2      0.09434      49.06000       6.46700     13.70800
  377    18     2      0.09434      48.84400       5.15000     12.55500
  378    18     2      0.09434      49.77500       4.88300     14.03500
  379    19     5     -0.03902      43.19200      46.27900      8.39900
  380    19     5     -0.04206      44.51300      45.77000      8.39900
  381    19     4     -0.12962      42.81500      47.13800      9.46600
  382    19     4     -0.12644      43.67600      47.50600     10.50900
  383    19     4     -0.12752      42.33600      45.89400      7.33300
  384    19     4     -0.07363      42.72700      45.04500      6.28700
  385    19     4     -0.12642      44.02900      44.54200      6.29100
  386    19     4     -0.12193      44.88800      44.91000      7.33400
  387    19     3     -0.20050      41.75400      44.67700      5.18700
  388    19     4     -0.13370      44.97700      47.00600     10.50900
  389    19     4     -0.12379      45.36900      46.15600      9.46600
  390    19     1      0.13092      45.66900      47.26700     11.29600
  391    19     1      0.13958      46.37900      45.77400      9.47600
  392    19     1      0.13322      41.81000      47.53200      9.47600
  393    19     1      0.14276      43.33800      48.16500     11.29600
  394    19     1      0.13779      41.32700      46.27900      7.33100
  395    19     1      0.13479      44.37300      43.88200      5.50800
  396    19     1      0.14255      45.89400      44.51500      7.32400
  397    19     2      0.09434      42.27900      44.32700      4.29700
  398    19     2      0.09434      41.15100      45.53900      4.90300