LAMMPS data file of the system for full atom style

    4941 atoms
    5022 bonds
   10206 angles
   16038 dihedrals

    2 atom types
    2 bond types
    3 angle types
    2 dihedral types

    0.000000    50.000000 xlo xhi
    0.000000    50.000000 ylo yhi
    0.000000    50.000000 zlo zhi

 Masses 

    1       1.0080
    2      12.0110

 Pair Coeffs 

    1       0.0300       2.5000
    2       0.0660       3.5000

 Bond Coeffs 

    1     268.0000        1.5290
    2     340.0000        1.0900

 Angle Coeffs 

    1      33.0000      107.8000
    2      37.5000      110.7000
    3      58.3500      112.7000

 Dihedral Coeffs 

    1       0.0000        0.0000       0.3000        0.0000
    2       0.8500       -0.2000       0.2000        0.0000

 Atoms 

    1     1     2     -0.17778      35.28100      22.13700      1.23800
    2     1     2     -0.18188      36.28800      21.65600      2.30500
    3     1     2     -0.17615      34.78400      23.58900      1.39300
    4     1     2     -0.17913      34.13700      23.91700      2.75300
    5     1     2     -0.17851      32.91400      23.05400      3.12200
    6     1     2     -0.17545      31.74800      23.09600      2.11600
    7     1     2     -0.18147      31.11300      24.49000      1.96000
    8     1     2     -0.18382      29.94600      24.53200      0.95500
    9     1     2     -0.18008      28.72500      23.66400      1.32300
   10     1     2     -0.18982      28.08400      23.98200      2.68500
   11     1     2     -0.23775      27.53700      25.41300      2.79200
   12     1     2     -0.10520      37.59300      22.48200      2.42300
   13     1     2     -0.17009      38.47100      22.41100      1.15900
   14     1     2     -0.17393      39.64800      23.40700      1.20300
   15     1     2     -0.17423      39.97900      23.90100      2.62500
   16     1     2     -0.11605      39.84800      22.79200      3.68600
   17     1     2     -0.10027      38.43000      22.13300      3.69000
   18     1     2     -0.16899      38.50400      20.61300      3.98700
   19     1     2     -0.19241      39.53100      20.29900      5.08400
   20     1     2     -0.18604      40.95800      20.71000      4.67900
   21     1     2     -0.17415      40.98400      21.75700      3.55200
   22     1     1      0.09197      39.29900      24.71400      2.88500
   23     1     1      0.09197      40.97600      24.34300      2.64600
   24     1     1      0.09429      39.98700      23.26800      4.65800
   25     1     1      0.08999      37.89200      22.57500      4.53100
   26     1     1      0.10350      37.29000      23.52200      2.54200
   27     1     1      0.08867      38.85700      21.39600      1.05100
   28     1     1      0.08867      37.88700      22.60200      0.26000
   29     1     1      0.08421      39.42500      24.27000      0.57400
   30     1     1      0.08421      40.52600      22.93600      0.75900
   31     1     1      0.09133      35.78600      21.64400      3.27400
   32     1     1      0.09133      36.53500      20.61600      2.09200
   33     1     1      0.09068      35.71200      22.01400      0.24400
   34     1     1      0.09068      34.42100      21.46600      1.24900
   35     1     1      0.08837      35.61300      24.27600      1.21900
   36     1     1      0.08837      34.07400      23.80600      0.59400
   37     1     1      0.09076      34.88600      23.82100      3.54000
   38     1     1      0.09076      33.85500      24.97000      2.76600
   39     1     1      0.08585      33.23000      22.01900      3.25100
   40     1     1      0.08585      32.54700      23.36400      4.10200
   41     1     1      0.09368      32.07500      22.72300      1.14500
   42     1     1      0.09368      30.98800      22.39400      2.45900
   43     1     1      0.09347      31.87200      25.19300      1.61700
   44     1     1      0.09347      30.78600      24.86300      2.93000
   45     1     1      0.08794      29.62600      25.56700      0.83000
   46     1     1      0.08794      30.31300      24.22700     -0.02600
   47     1     1      0.09119      29.00700      22.61100      1.29700
   48     1     1      0.09119      27.97100      23.77400      0.54100
   49     1     1      0.08652      28.79500      23.79600      3.49100
   50     1     1      0.08652      27.26300      23.28200      2.85500
   51     1     1      0.08267      27.02900      25.56300      3.74400
   52     1     1      0.08267      28.33600      26.15200      2.72900
   53     1     1      0.08267      26.82100      25.62400      1.99700
   54     1     1      0.10057      37.52600      20.24200      4.29500
   55     1     1      0.10057      38.76600      20.06400      3.08200
   56     1     1      0.08520      39.24500      20.83100      5.99300
   57     1     1      0.08520      39.50500      19.23800      5.33800
   58     1     1      0.08965      41.48000      21.09400      5.55700
   59     1     1      0.08965      41.52200      19.83300      4.35800
   60     1     1      0.09363      41.95700      22.25100      3.53700
   61     1     1      0.09363      40.89600      21.24900      2.59100
   62     2     2     -0.17778      38.75400      14.53700     23.21100
   63     2     2     -0.18188      39.63000      13.52300     22.44400
   64     2     2     -0.17615      37.84100      15.42400     22.34000
   65     2     2     -0.17913      38.56600      16.24100     21.25300
   66     2     2     -0.17851      39.65100      17.20500     21.77300
   67     2     2     -0.17545      39.17000      18.25500     22.79200
   68     2     2     -0.18147      38.12500      19.23400     22.22700
   69     2     2     -0.18382      37.64400      20.28500     23.24500
   70     2     2     -0.18008      38.73300      21.24500     23.76900
   71     2     2     -0.18982      39.46600      22.05300     22.68400
   72     2     2     -0.23775      38.54700      22.98000     21.87600
   73     2     2     -0.10520      38.86900      12.50900     21.55400
   74     2     2     -0.17009      37.97300      11.54900     22.36000
   75     2     2     -0.17393      37.05800      10.69800     21.45600
   76     2     2     -0.17423      37.53800      10.62800     19.99200
   77     2     2     -0.11605      39.07100      10.53200     19.87300
   78     2     2     -0.10027      39.80200      11.70900     20.59500
   79     2     2     -0.16899      41.12300      11.24400     21.25900
   80     2     2     -0.19241      41.89100      10.26000     20.36500
   81     2     2     -0.18604      41.09000       8.97400     20.09600
   82     2     2     -0.17415      39.57800       9.14800     20.32700
   83     2     1      0.09197      37.20400      11.52400     19.46600
   84     2     1      0.09197      37.05500       9.79600     19.47900
   85     2     1      0.09429      39.31000      10.60600     18.81000
   86     2     1      0.08999      40.09300      12.41300     19.81300
   87     2     1      0.10350      38.21200      13.09500     20.91200
   88     2     1      0.08867      38.60600      10.89100     22.95900
   89     2     1      0.08867      37.35200      12.09100     23.07200
   90     2     1      0.08421      36.04400      11.10000     21.47300
   91     2     1      0.08421      36.98600       9.69300     21.87200
   92     2     1      0.09133      40.33900      14.07600     21.82600
   93     2     1      0.09133      40.23700      12.98300     23.17100
   94     2     1      0.09068      38.14200      14.01200     23.94500
   95     2     1      0.09068      39.40600      15.17700     23.80500
   96     2     1      0.08837      37.07600      14.80500     21.86900
   97     2     1      0.08837      37.28400      16.10100     22.98900
   98     2     1      0.09076      39.01700      15.55900     20.53100
   99     2     1      0.09076      37.82700      16.80100     20.68000
  100     2     1      0.08585      40.46100      16.62600     22.21900
  101     2     1      0.08585      40.10300      17.71800     20.92200
  102     2     1      0.09368      38.77800      17.76200     23.68200
  103     2     1      0.09368      40.04200      18.81600     23.12700
  104     2     1      0.09347      37.25200      18.67300     21.89200
  105     2     1      0.09347      38.51600      19.72600     21.33600
  106     2     1      0.08794      36.83800      20.86700     22.79800
  107     2     1      0.08794      37.18900      19.77300     24.09400
  108     2     1      0.09119      39.46300      20.68400     24.35200
  109     2     1      0.09119      38.27500      21.93700     24.47900
  110     2     1      0.08652      40.00300      21.38400     22.01100
  111     2     1      0.08652      40.23600      22.66100     23.16500
  112     2     1      0.08267      39.12300      23.58200     21.17500
  113     2     1      0.08267      37.81900      22.41200     21.29400
  114     2     1      0.08267      37.99800      23.66200     22.52600
  115     2     1      0.10057      41.76000      12.10400     21.47400
  116     2     1      0.10057      40.91700      10.77200     22.22000
  117     2     1      0.08520      42.11700      10.75200     19.41700
  118     2     1      0.08520      42.85600      10.01300     20.81100
  119     2     1      0.08965      41.27400       8.64800     19.07100
  120     2     1      0.08965      41.45300       8.16700     20.73400
  121     2     1      0.09363      39.03700       8.35100     19.81600
  122     2     1      0.09363      39.36300       9.01800     21.38900
  123     3     2     -0.17778      13.40000      13.14300     35.04700
  124     3     2     -0.18188      14.34100      14.12700     34.31900
  125     3     2     -0.17615      13.44000      11.68500     34.54500
  126     3     2     -0.17913      13.15100      11.50300     33.04200
  127     3     2     -0.17851      11.78300      12.03200     32.56800
  128     3     2     -0.17545      10.55800      11.42200     33.27600
  129     3     2     -0.18147      10.40300       9.90800     33.05300
  130     3     2     -0.18382       9.17700       9.29800     33.76000
  131     3     2     -0.18008       7.80900       9.83200     33.28900
  132     3     2     -0.18982       7.52300       9.66200     31.78600
  133     3     2     -0.23775       7.50100       8.19800     31.32400
  134     3     2     -0.10520      15.84800      13.76800     34.34900
  135     3     2     -0.17009      16.45000      13.80100     35.76700
  136     3     2     -0.17393      17.88300      13.23000     35.81100
  137     3     2     -0.17423      18.57000      13.19200     34.43200
  138     3     2     -0.11605      18.24300      14.42700     33.57100
  139     3     2     -0.10027      16.70500      14.62600     33.37100
  140     3     2     -0.16899      16.31700      16.12700     33.35900
  141     3     2     -0.19241      17.33700      16.97000     32.57800
  142     3     2     -0.18604      18.74000      16.91200     33.20800
  143     3     2     -0.17415      18.94000      15.68900     34.12000
  144     3     1      0.09197      18.24400      12.29900     33.89700
  145     3     1      0.09197      19.64800      13.07700     34.55300
  146     3     1      0.09429      18.67700      14.24800     32.58500
  147     3     1      0.08999      16.47700      14.25100     32.37200
  148     3     1      0.10350      15.92700      12.74100     33.99300
  149     3     1      0.08867      16.45900      14.83100     36.12500
  150     3     1      0.08867      15.83300      13.24700     36.47300
  151     3     1      0.08421      17.86500      12.21900     36.22100
  152     3     1      0.08421      18.47800      13.82100     36.50800
  153     3     1      0.09133      14.01700      14.21400     33.28200
  154     3     1      0.09133      14.19600      15.11700     34.75400
  155     3     1      0.09068      13.61000      13.15600     36.11600
  156     3     1      0.09068      12.37900      13.51800     34.96300
  157     3     1      0.08837      14.41300      11.24900     34.77500
  158     3     1      0.08837      12.72900      11.09300     35.12300
  159     3     1      0.09076      13.93700      11.99000     32.46300
  160     3     1      0.09076      13.23900      10.44500     32.79000
  161     3     1      0.08585      11.75600      13.11500     32.68800
  162     3     1      0.08585      11.69200      11.86100     31.49400
  163     3     1      0.09368      10.59300      11.64200     34.34300
  164     3     1      0.09368       9.67100      11.93200     32.90000
  165     3     1      0.09347      11.29000       9.39700     33.42900
  166     3     1      0.09347      10.36900       9.68700     31.98600
  167     3     1      0.08794       9.20100       8.21500     33.63600
  168     3     1      0.08794       9.26900       9.46400     34.83400
  169     3     1      0.09119       7.71900      10.88700     33.55200
  170     3     1      0.09119       7.02400       9.33100     33.85800
  171     3     1      0.08652       8.24600      10.22600     31.19700
  172     3     1      0.08652       6.55300      10.11100     31.56400
  173     3     1      0.08267       7.22200       8.12700     30.27300
  174     3     1      0.08267       8.48100       7.72900     31.43200
  175     3     1      0.08267       6.78400       7.61000     31.89700
  176     3     1      0.10057      15.33000      16.25700     32.91300
  177     3     1      0.10057      16.24300      16.50600     34.37800
  178     3     1      0.08520      17.38400      16.60000     31.55300
  179     3     1      0.08520      17.00100      18.00500     32.50800
  180     3     1      0.08965      19.48700      16.90800     32.41100
  181     3     1      0.08965      18.92800      17.81700     33.78600
  182     3     1      0.09363      20.00700      15.51000     34.26200
  183     3     1      0.09363      18.54400      15.91500     35.11100
  184     4     2     -0.17778      40.97100      43.77500     32.52800
  185     4     2     -0.18188      39.50200      44.20300     32.32400
  186     4     2     -0.17615      41.19400      42.58400     33.48300
  187     4     2     -0.17913      40.61300      42.76400     34.89900
  188     4     2     -0.17851      41.14900      43.98200     35.67700
  189     4     2     -0.17545      42.67600      44.02000     35.87500
  190     4     2     -0.18147      43.22200      42.84900     36.71100
  191     4     2     -0.18382      44.74900      42.88600     36.91100
  192     4     2     -0.18008      45.28400      44.10900     37.68500
  193     4     2     -0.18982      44.69700      44.29700     39.09500
  194     4     2     -0.23775      44.99000      43.12900     40.04700
  195     4     2     -0.10520      38.54900      43.11100     31.77900
  196     4     2     -0.17009      38.90600      42.65100     30.35300
  197     4     2     -0.17393      38.09400      41.41600     29.91100
  198     4     2     -0.17423      36.81600      41.19500     30.74300
  199     4     2     -0.11605      36.10600      42.51300     31.10600
  200     4     2     -0.10027      37.04400      43.50800     31.86400
  201     4     2     -0.16899      36.76700      44.97900     31.46300
  202     4     2     -0.19241      35.26200      45.25400     31.32200
  203     4     2     -0.18604      34.61600      44.39600     30.22000
  204     4     2     -0.17415      35.44300      43.14800     29.86700
  205     4     1      0.09197      37.07800      40.67600     31.66600
  206     4     1      0.09197      36.13800      40.52100     30.21800
  207     4     1      0.09429      35.29100      42.25600     31.78600
  208     4     1      0.08999      36.77900      43.43200     32.92100
  209     4     1      0.10350      38.66700      42.24600     32.43100
  210     4     1      0.08867      38.72400      43.47300     29.65900
  211     4     1      0.08867      39.96700      42.41900     30.26500
  212     4     1      0.08421      38.71500      40.52200     29.97800
  213     4     1      0.08421      37.83800      41.52000     28.85600
  214     4     1      0.09133      39.11400      44.57300     33.27400
  215     4     1      0.09133      39.49100      45.06200     31.65100
  216     4     1      0.09068      41.42500      43.54500     31.56300
  217     4     1      0.09068      41.53300      44.63300     32.89700
  218     4     1      0.08837      40.77500      41.68000     33.03800
  219     4     1      0.08837      42.26400      42.38400     33.55400
  220     4     1      0.09076      39.52700      42.83700     34.83500
  221     4     1      0.09076      40.79600      41.85600     35.47400
  222     4     1      0.08585      40.83700      44.89600     35.17200
  223     4     1      0.08585      40.66400      44.01600     36.65400
  224     4     1      0.09368      43.18000      44.05700     34.90900
  225     4     1      0.09368      42.92300      44.95900     36.37100
  226     4     1      0.09347      42.97600      41.90900     36.21600
  227     4     1      0.09347      42.71800      42.81100     37.67700
  228     4     1      0.08794      45.06100      41.97400     37.42100
  229     4     1      0.08794      45.23500      42.84800     35.93500
  230     4     1      0.09119      45.11100      45.01400     37.10200
  231     4     1      0.09119      46.37000      44.02600     37.76100
  232     4     1      0.08652      43.62200      44.46800     39.03800
  233     4     1      0.08652      45.11400      45.21000     39.52600
  234     4     1      0.08267      44.61900      43.34300     41.04900
  235     4     1      0.08267      44.50700      42.20900     39.71300
  236     4     1      0.08267      46.06100      42.93700     40.12400
  237     4     1      0.10057      37.18700      45.65800     32.20600
  238     4     1      0.10057      37.26400      45.21400     30.52100
  239     4     1      0.08520      34.77800      45.04300     32.27700
  240     4     1      0.08520      35.08500      46.31200     31.12500
  241     4     1      0.08965      33.61500      44.10100     30.54100
  242     4     1      0.08965      34.47500      44.99300     29.31800
  243     4     1      0.09363      34.80900      42.42400     29.35400
  244     4     1      0.09363      36.21700      43.42500     29.14800
  245     5     2     -0.17778      20.19100      12.68800     40.31000
  246     5     2     -0.18188      21.44000      13.21200     39.57100
  247     5     2     -0.17615      20.39800      11.41200     41.15200
  248     5     2     -0.17913      20.96100      10.20300     40.38000
  249     5     2     -0.17851      20.10900       9.73600     39.18300
  250     5     2     -0.17545      18.65900       9.34200     39.51800
  251     5     2     -0.18147      18.54700       8.13900     40.47100
  252     5     2     -0.18382      17.09600       7.74300     40.80600
  253     5     2     -0.18008      16.24300       7.28100     39.60600
  254     5     2     -0.18982      16.81000       6.08100     38.82700
  255     5     2     -0.23775      16.94300       4.80400     39.66900
  256     5     2     -0.10520      22.66000      13.55300     40.46200
  257     5     2     -0.17009      22.39600      14.72400     41.42800
  258     5     2     -0.17393      23.53200      14.90700     42.45600
  259     5     2     -0.17423      24.85400      14.23600     42.03400
  260     5     2     -0.11605      25.13200      14.36700     40.52500
  261     5     2     -0.10027      23.96700      13.79900     39.65100
  262     5     2     -0.16899      23.75100      14.63700     38.36500
  263     5     2     -0.19241      25.08600      15.06200     37.73400
  264     5     2     -0.18604      25.91400      15.95500     38.67500
  265     5     2     -0.17415      25.50200      15.81800     40.15100
  266     5     1      0.09197      24.81100      13.17600     42.28900
  267     5     1      0.09197      25.68200      14.63800     42.61900
  268     5     1      0.09429      26.01800      13.76600     40.31400
  269     5     1      0.08999      24.29400      12.81300     39.31200
  270     5     1      0.10350      22.85000      12.67100     41.07500
  271     5     1      0.08867      22.27900      15.64100     40.85000
  272     5     1      0.08867      21.45800      14.59000     41.96600
  273     5     1      0.08421      23.22500      14.50100     43.42100
  274     5     1      0.08421      23.69100      15.97300     42.62200
  275     5     1      0.09133      21.73900      12.47100     38.82800
  276     5     1      0.09133      21.15000      14.09500     39.00100
  277     5     1      0.09068      19.78600      13.47300     40.95000
  278     5     1      0.09068      19.40700      12.50200     39.57500
  279     5     1      0.08837      21.05700      11.63600     41.99300
  280     5     1      0.08837      19.44900      11.13600     41.61400
  281     5     1      0.09076      21.96600      10.43800     40.02700
  282     5     1      0.09076      21.09900       9.37300     41.07400
  283     5     1      0.08585      20.09500      10.51900     38.42500
  284     5     1      0.08585      20.60600       8.88800     38.70800
  285     5     1      0.09368      18.12200      10.19700     39.93100
  286     5     1      0.09368      18.15500       9.10400     38.58100
  287     5     1      0.09347      19.05000       8.37500     41.40900
  288     5     1      0.09347      19.08300       7.28300     40.06000
  289     5     1      0.08794      17.11000       6.95600     41.56100
  290     5     1      0.08794      16.60100       8.58800     41.28500
  291     5     1      0.09119      16.09700       8.11600     38.92100
  292     5     1      0.09119      15.24300       7.03100     39.96500
  293     5     1      0.08652      17.77300       6.33700     38.38600
  294     5     1      0.08652      16.14900       5.87300     37.98200
  295     5     1      0.08267      17.27600       3.96800     39.05500
  296     5     1      0.08267      17.67200       4.92900     40.47100
  297     5     1      0.08267      15.99100       4.52500     40.12100
  298     5     1      0.10057      23.17700      14.06600     37.63500
  299     5     1      0.10057      23.16100      15.52600     38.58900
  300     5     1      0.08520      25.65800      14.16500     37.48900
  301     5     1      0.08520      24.91400      15.57600     36.78700
  302     5     1      0.08965      26.97100      15.70900     38.55900
  303     5     1      0.08965      25.81800      17.00000     38.37900
  304     5     1      0.09363      26.30600      16.18800     40.79000
  305     5     1      0.09363      24.64700      16.46700     40.34500
  306     6     2     -0.17778      20.69300       8.66900     20.57500
  307     6     2     -0.18188      19.36900       9.37600     20.21400
  308     6     2     -0.17615      21.71400       8.53500     19.42600
  309     6     2     -0.17913      21.19000       7.81800     18.16600
  310     6     2     -0.17851      20.68200       6.38100     18.39400
  311     6     2     -0.17545      21.70800       5.40500     18.99900
  312     6     2     -0.18147      22.93700       5.16400     18.10400
  313     6     2     -0.18382      23.96400       4.18700     18.70700
  314     6     2     -0.18008      23.45200       2.75100     18.94100
  315     6     2     -0.18982      22.91800       2.03600     17.68600
  316     6     2     -0.23775      23.97000       1.85500     16.58300
  317     6     2     -0.10520      19.50000      10.81800     19.66700
  318     6     2     -0.17009      20.07200      11.80900     20.69900
  319     6     2     -0.17393      20.40300      13.18100     20.07800
  320     6     2     -0.17423      19.68600      13.43600     18.73800
  321     6     2     -0.11605      18.24400      12.89400     18.72200
  322     6     2     -0.10027      18.17500      11.36900     19.05800
  323     6     2     -0.16899      16.91600      11.02100     19.89300
  324     6     2     -0.19241      15.67900      11.78400     19.39800
  325     6     2     -0.18604      15.84800      13.30900     19.52300
  326     6     2     -0.17415      17.32100      13.74400     19.62000
  327     6     1      0.09197      20.24800      12.95200     17.93700
  328     6     1      0.09197      19.70400      14.50000     18.49900
  329     6     1      0.09429      17.87100      13.01900     17.70400
  330     6     1      0.08999      18.05200      10.85300     18.10400
  331     6     1      0.10350      20.21000      10.77200     18.84200
  332     6     1      0.08867      19.34800      11.94000     21.50500
  333     6     1      0.08867      20.97100      11.41400     21.17100
  334     6     1      0.08421      21.47900      13.26600     19.92100
  335     6     1      0.08421      20.14600      13.96400     20.79200
  336     6     1      0.09133      18.83800       8.76500     19.48300
  337     6     1      0.09133      18.73600       9.38100     21.10200
  338     6     1      0.09068      21.16800       9.18300     21.41200
  339     6     1      0.09068      20.46100       7.67500     20.95900
  340     6     1      0.08837      22.07700       9.52500     19.14600
  341     6     1      0.08837      22.59700       8.01300     19.79700
  342     6     1      0.09076      20.38800       8.40900     17.72300
  343     6     1      0.09076      21.97700       7.80900     17.41100
  344     6     1      0.08585      19.80200       6.40900     19.03800
  345     6     1      0.08585      20.32700       5.97800     17.44400
  346     6     1      0.09368      22.02400       5.75300     19.98200
  347     6     1      0.09368      21.20100       4.45500     19.17300
  348     6     1      0.09347      23.44600       6.11300     17.93000
  349     6     1      0.09347      22.62200       4.81700     17.12000
  350     6     1      0.08794      24.84200       4.15500     18.06200
  351     6     1      0.08794      24.32200       4.59100     19.65500
  352     6     1      0.09119      22.67400       2.76100     19.70500
  353     6     1      0.09119      24.26200       2.15700     19.36900
  354     6     1      0.08652      22.05200       2.56700     17.28900
  355     6     1      0.08652      22.54700       1.05200     17.97900
  356     6     1      0.08267      23.56400       1.28000     15.75100
  357     6     1      0.08267      24.30100       2.81400     16.18400
  358     6     1      0.08267      24.84800       1.32500     16.95500
  359     6     1      0.10057      16.71800       9.95000     19.84700
  360     6     1      0.10057      17.08500      11.25400     20.94500
  361     6     1      0.08520      15.50200      11.52300     18.35300
  362     6     1      0.08520      14.78900      11.46100     19.94100
  363     6     1      0.08965      15.37300      13.79000     18.66600
  364     6     1      0.08965      15.31500      13.67300     20.40200
  365     6     1      0.09363      17.40600      14.80200     19.37000
  366     6     1      0.09363      17.65100      13.65800     20.65700
  367     7     2     -0.17778      33.29500      38.52200     38.23700
  368     7     2     -0.18188      33.58300      39.96200     37.76000
  369     7     2     -0.17615      33.44600      37.42100     37.16700
  370     7     2     -0.17913      32.59300      37.61800     35.90000
  371     7     2     -0.17851      31.07300      37.70900     36.14100
  372     7     2     -0.17545      30.44300      36.49400     36.84900
  373     7     2     -0.18147      30.55600      35.18300     36.05100
  374     7     2     -0.18382      29.92600      33.96900     36.75800
  375     7     2     -0.18008      28.40500      34.06300     37.00400
  376     7     2     -0.18982      27.55100      34.27200     35.74000
  377     7     2     -0.23775      27.66800      33.13000     34.72100
  378     7     2     -0.10520      34.99500      40.21000     37.17400
  379     7     2     -0.17009      36.12200      40.02700     38.20900
  380     7     2     -0.17393      37.52400      40.05700     37.56600
  381     7     2     -0.17423      37.54300      40.71200     36.17100
  382     7     2     -0.11605      36.60800      41.93200     36.07300
  383     7     2     -0.10027      35.13200      41.58600     36.45600
  384     7     2     -0.16899      34.44500      42.75200     37.21200
  385     7     2     -0.19241      34.81200      44.11500     36.60600
  386     7     2     -0.18604      36.32200      44.40000     36.69000
  387     7     2     -0.17415      37.16500      43.12600     36.87500
  388     7     1      0.09197      37.23200      39.97500     35.42800
  389     7     1      0.09197      38.56400      40.98200     35.89700
  390     7     1      0.09429      36.60500      42.24600     35.02800
  391     7     1      0.08999      34.59000      41.48200     35.51300
  392     7     1      0.10350      35.14600      39.45400     36.40300
  393     7     1      0.08867      36.04800      40.81800     38.95700
  394     7     1      0.08867      36.01000      39.09200     38.75600
  395     7     1      0.08421      37.91300      39.04200     37.48200
  396     7     1      0.08421      38.20800      40.58200     38.23300
  397     7     1      0.09133      32.83600      40.23700     37.01500
  398     7     1      0.09133      33.41700      40.63600     38.60200
  399     7     1      0.09068      33.93400      38.28100     39.08600
  400     7     1      0.09068      32.28100      38.48800     38.63700
  401     7     1      0.08837      34.49600      37.33800     36.88000
  402     7     1      0.08837      33.20700      36.45700     37.61700
  403     7     1      0.09076      32.92100      38.52000     35.38100
  404     7     1      0.09076      32.80200      36.80700     35.20200
  405     7     1      0.08585      30.85400      38.60600     36.72000