LAMMPS data file of the system for full atom style

    4959 atoms
    4959 bonds
    9918 angles
   14877 dihedrals

    2 atom types
    2 bond types
    3 angle types
    2 dihedral types

    0.000000    50.000000 xlo xhi
    0.000000    50.000000 ylo yhi
    0.000000    50.000000 zlo zhi

 Masses 

    1       1.0080
    2      12.0110

 Pair Coeffs 

    1       0.0300       2.5000
    2       0.0660       3.5000

 Bond Coeffs 

    1     268.0000        1.5290
    2     340.0000        1.0900

 Angle Coeffs 

    1      33.0000      107.8000
    2      37.5000      110.7000
    3      58.3500      112.7000

 Dihedral Coeffs 

    1       0.0000        0.0000       0.3000        0.0000
    2       0.8500       -0.2000       0.2000        0.0000

 Atoms 

    1     1     2     -0.10902      21.13900      22.33800     14.98800
    2     1     2     -0.09439      22.67300      22.09400     14.96000
    3     1     2     -0.18461      23.30100      22.42800     13.58200
    4     1     2     -0.18712      24.79800      22.79300     13.65700
    5     1     2     -0.17567      20.41900      21.55000     16.11400
    6     1     2     -0.18131      20.53400      20.01100     16.05900
    7     1     2     -0.18009      20.11000      19.36300     14.72800
    8     1     2     -0.17843      18.65400      19.65500     14.33300
    9     1     2     -0.17976      18.24100      18.92400     13.04800
   10     1     2     -0.24048      16.79200      19.22400     12.64500
   11     1     2     -0.18061      20.78300      23.84300     15.05900
   12     1     2     -0.18888      19.36700      24.17300     14.55300
   13     1     2     -0.18283      19.08200      25.68200     14.56400
   14     1     2     -0.17555      17.66900      26.01300     14.05400
   15     1     2     -0.17962      17.31700      27.50600     14.14500
   16     1     2     -0.24317      18.14400      28.39300     13.20300
   17     1     2     -0.18365      25.51400      22.02200     14.77300
   18     1     2     -0.18063      24.92000      22.33900     16.16100
   19     1     2     -0.16492      23.44300      22.78200     16.10700
   20     1     1      0.08871      26.58400      22.23800     14.76700
   21     1     1      0.08871      25.42400      20.95300     14.57400
   22     1     1      0.08340      25.50300      23.12200     16.64500
   23     1     1      0.08340      25.02100      21.45800     16.79700
   24     1     1      0.09051      22.97300      22.58300     17.07100
   25     1     1      0.09051      23.40200      23.86300     15.97100
   26     1     1      0.10316      22.83900      21.02500     15.08700
   27     1     1      0.08762      23.17100      21.56500     12.92700
   28     1     1      0.08762      22.77300      23.24200     13.08600
   29     1     1      0.09487      24.90200      23.86400     13.84300
   30     1     1      0.09487      25.27600      22.60800     12.69300
   31     1     1      0.10027      20.75100      21.96800     14.03800
   32     1     1      0.09641      19.35800      21.79800     16.11100
   33     1     1      0.09641      20.77600      21.89100     17.08500
   34     1     1      0.08608      19.92500      19.59100     16.86200
   35     1     1      0.08608      21.55300      19.70600     16.29700
   36     1     1      0.08644      20.24500      18.28300     14.81400
   37     1     1      0.08644      20.78400      19.67700     13.92900
   38     1     1      0.09157      17.98900      19.36500     15.14800
   39     1     1      0.09157      18.51700      20.72800     14.19200
   40     1     1      0.08847      18.36200      17.84800     13.18000
   41     1     1      0.08847      18.90700      19.21000     12.23200
   42     1     1      0.08176      16.09200      18.91400     13.42200
   43     1     1      0.08176      16.64300      20.28900     12.46400
   44     1     1      0.08176      16.52400      18.69300     11.73000
   45     1     1      0.09556      20.90800      24.20500     16.07900
   46     1     1      0.09556      21.49200      24.41700     14.46100
   47     1     1      0.09413      19.24600      23.79100     13.53900
   48     1     1      0.09413      18.62000      23.66600     15.16300
   49     1     1      0.09279      19.20200      26.06800     15.57800
   50     1     1      0.09279      19.82400      26.19300     13.95000
   51     1     1      0.08975      17.55600      25.67000     13.02400
   52     1     1      0.08975      16.94000      25.45000     14.64000
   53     1     1      0.08647      16.26100      27.63200     13.90200
   54     1     1      0.08647      17.43000      27.85400     15.17300
   55     1     1      0.07884      19.20200      28.38600     13.46700
   56     1     1      0.07884      18.05500      28.06400     12.16800
   57     1     1      0.07884      17.80600      29.42800     13.25000
   58     2     2     -0.10902      29.57400      26.17000     42.83800
   59     2     2     -0.09439      28.23600      25.42300     42.57900
   60     2     2     -0.18461      27.00000      26.25600     43.00300
   61     2     2     -0.18712      25.70900      25.87600     42.24800
   62     2     2     -0.17567      30.79500      25.21700     42.92700
   63     2     2     -0.18131      30.75800      24.15500     44.04800
   64     2     2     -0.18009      30.51900      24.69900     45.46800
   65     2     2     -0.17843      31.58000      25.71000     45.93100
   66     2     2     -0.17976      31.35800      26.16500     47.38000
   67     2     2     -0.24048      32.40900      27.18400     47.83900
   68     2     2     -0.18061      29.83000      27.29300     41.80400
   69     2     2     -0.18888      30.80000      28.38300     42.29500
   70     2     2     -0.18283      30.96500      29.51800     41.27400
   71     2     2     -0.17555      31.93000      30.61000     41.76700
   72     2     2     -0.17962      32.19400      31.71100     40.72700
   73     2     2     -0.24317      30.96200      32.57600     40.42000
   74     2     2     -0.18365      25.67300      24.38100     41.90700
   75     2     2     -0.18063      26.84600      23.97200     40.99300
   76     2     2     -0.16492      28.08200      24.88300     41.14100
   77     2     1      0.08871      24.72400      24.11500     41.43700
   78     2     1      0.08871      25.71700      23.80800     42.83500
   79     2     1      0.08340      26.52700      23.98100     39.95100
   80     2     1      0.08340      27.11900      22.93800     41.21100
   81     2     1      0.09051      28.97100      24.33600     40.82800
   82     2     1      0.09051      27.98800      25.72200     40.45000
   83     2     1      0.10316      28.21600      24.54800     43.23000
   84     2     1      0.08762      26.84500      26.12200     44.07500
   85     2     1      0.08762      27.17200      27.32400     42.87300
   86     2     1      0.09487      25.64600      26.45100     41.32200
   87     2     1      0.09487      24.83500      26.15800     42.83700
   88     2     1      0.10027      29.47200      26.65500     43.81000
   89     2     1      0.09641      31.70400      25.80200     43.06200
   90     2     1      0.09641      30.93500      24.71100     41.97300
   91     2     1      0.08608      31.70300      23.60900     44.03600
   92     2     1      0.08608      30.00300      23.40200     43.82100
   93     2     1      0.08644      30.50700      23.85600     46.16100
   94     2     1      0.08644      29.52500      25.14400     45.53500
   95     2     1      0.09157      32.57300      25.26800     45.83400
   96     2     1      0.09157      31.56700      26.58400     45.27800
   97     2     1      0.08847      31.38000      25.30100     48.04500
   98     2     1      0.08847      30.36400      26.60500     47.48000
   99     2     1      0.08176      33.41500      26.76600     47.79100
  100     2     1      0.08176      32.38800      28.08100     47.22000
  101     2     1      0.08176      32.22800      27.49000     48.87100
  102     2     1      0.09556      30.19600      26.86200     40.87200
  103     2     1      0.09556      28.88800      27.77800     41.54600
  104     2     1      0.09413      30.43500      28.79500     43.23700
  105     2     1      0.09413      31.77700      27.95100     42.50800
  106     2     1      0.09279      31.33100      29.10900     40.33000
  107     2     1      0.09279      29.99000      29.95700     41.06200
  108     2     1      0.08975      31.54900      31.05600     42.68700
  109     2     1      0.08975      32.88300      30.14800     42.03000
  110     2     1      0.08647      32.98900      32.35900     41.09900
  111     2     1      0.08647      32.57500      31.27000     39.80500
  112     2     1      0.07884      30.16900      31.99600     39.94900
  113     2     1      0.07884      30.55700      33.02600     41.32700
  114     2     1      0.07884      31.22000      33.38700     39.73800
  115     3     2     -0.10902      38.88900      26.07500     36.36900
  116     3     2     -0.09439      37.98700      25.48300     37.48700
  117     3     2     -0.18461      37.54800      26.55100     38.52200
  118     3     2     -0.18712      36.23300      26.20200     39.24900
  119     3     2     -0.17567      39.74900      25.00300     35.65000
  120     3     2     -0.18131      40.74600      24.21700     36.53100
  121     3     2     -0.18009      41.71600      25.07700     37.36100
  122     3     2     -0.17843      42.60000      26.00600     36.51500
  123     3     2     -0.17976      43.61200      26.78300     37.36700
  124     3     2     -0.24048      44.48800      27.72000     36.52600
  125     3     2     -0.18061      38.08200      26.90800     35.34200
  126     3     2     -0.18888      38.93100      27.93100     34.56600
  127     3     2     -0.18283      38.08200      28.79100     33.61700
  128     3     2     -0.17555      38.92800      29.81700     32.84600
  129     3     2     -0.17962      38.12400      30.62700     31.81600
  130     3     2     -0.24317      37.08800      31.56900     32.44600
  131     3     2     -0.18365      36.07900      24.68800     39.44500
  132     3     2     -0.18063      36.04100      23.93700     38.09800
  133     3     2     -0.16492      36.77800      24.67800     36.96400
  134     3     1      0.08871      35.18000      24.46400     40.02300
  135     3     1      0.08871      36.91700      24.32400     40.04200
  136     3     1      0.08340      35.00800      23.76900     37.79500
  137     3     1      0.08340      36.47400      22.94400     38.23700
  138     3     1      0.09051      37.08300      23.95900     36.20300
  139     3     1      0.09051      36.08000      25.35700     36.47300
  140     3     1      0.10316      38.59200      24.77700     38.05700
  141     3     1      0.08762      38.34800      26.66900     39.25500
  142     3     1      0.08762      37.43700      27.53300     38.06300
  143     3     1      0.09487      35.38600      26.57200     38.66800
  144     3     1      0.09487      36.18900      26.72100     40.20900
  145     3     1      0.10027      39.57700      26.76400     36.86000
  146     3     1      0.09641      40.32100      25.47100     34.85000
  147     3     1      0.09641      39.09900      24.29200     35.14100
  148     3     1      0.08608      41.32800      23.55500     35.88600
  149     3     1      0.08608      40.20300      23.54500     37.19600
  150     3     1      0.08644      42.35500      24.40900     37.94100
  151     3     1      0.08644      41.16100      25.65900     38.09900
  152     3     1      0.09157      43.13000      25.42000     35.76200
  153     3     1      0.09157      41.97600      26.71500     35.97000
  154     3     1      0.08847      44.25100      26.08500     37.91000
  155     3     1      0.08847      43.08500      27.36700     38.12400
  156     3     1      0.08176      45.06200      27.16600     35.78300
  157     3     1      0.08176      43.88400      28.46000     36.00000
  158     3     1      0.08176      45.19700      28.26000     37.15500
  159     3     1      0.09556      37.57200      26.24200     34.64500
  160     3     1      0.09556      37.28800      27.45300     35.85300
  161     3     1      0.09413      39.45100      28.58000     35.27200
  162     3     1      0.09413      39.70300      27.42200     33.99000
  163     3     1      0.09279      37.56000      28.14500     32.90900
  164     3     1      0.09279      37.31100      29.30600     34.19100
  165     3     1      0.08975      39.41900      30.49600     33.54600
  166     3     1      0.08975      39.73100      29.29400     32.32400
  167     3     1      0.08647      38.81800      31.22200     31.22000
  168     3     1      0.08647      37.63100      29.95200     31.11400
  169     3     1      0.07884      36.30700      31.01800     32.97100
  170     3     1      0.07884      37.55400      32.25200     33.15700
  171     3     1      0.07884      36.60000      32.17300     31.68100
  172     4     2     -0.10902      39.20700      12.51100      4.32900
  173     4     2     -0.09439      39.59300      11.01000      4.22900
  174     4     2     -0.18461      40.43700      10.69800      2.96600
  175     4     2     -0.18712      41.33100       9.44900      3.11300
  176     4     2     -0.17567      37.97600      12.76300      5.23900
  177     4     2     -0.18131      36.65600      12.08400      4.81400
  178     4     2     -0.18009      36.20100      12.36700      3.37000
  179     4     2     -0.17843      35.98100      13.85800      3.07000
  180     4     2     -0.17976      35.44800      14.09500      1.65100
  181     4     2     -0.24048      35.23900      15.58300      1.34600
  182     4     2     -0.18061      40.40000      13.39800      4.76400
  183     4     2     -0.18888      40.25300      14.87800      4.36600
  184     4     2     -0.18283      41.49100      15.70700      4.74400
  185     4     2     -0.17555      41.34700      17.18400      4.34200
  186     4     2     -0.17962      42.52600      18.06000      4.79300
  187     4     2     -0.24317      43.84800      17.72800      4.08500
  188     4     2     -0.18365      40.67600       8.38600      4.00400
  189     4     2     -0.18063      40.42500       8.91000      5.43300
  190     4     2     -0.16492      40.25700      10.44200      5.50100
  191     4     1      0.08871      41.28700       7.48200      4.04000
  192     4     1      0.08871      39.72700       8.08700      3.55400
  193     4     1      0.08340      41.24700       8.61700      6.08600
  194     4     1      0.08340      39.53700       8.42000      5.83700
  195     4     1      0.09051      39.68600      10.70100      6.39300
  196     4     1      0.09051      41.23800      10.90000      5.63000
  197     4     1      0.10316      38.67200      10.44200      4.09300
  198     4     1      0.08762      39.75700      10.56000      2.12400
  199     4     1      0.08762      41.06800      11.54100      2.68600
  200     4     1      0.09487      42.28900       9.73600      3.55100
  201     4     1      0.09487      41.56200       9.03800      2.12900
  202     4     1      0.10027      38.93300      12.82700      3.32200
  203     4     1      0.09641      37.78500      13.83300      5.30600
  204     4     1      0.09641      38.20800      12.46200      6.26100
  205     4     1      0.08608      35.86700      12.40400      5.49800
  206     4     1      0.08608      36.72800      11.00600      4.96200
  207     4     1      0.08644      35.26900      11.82800      3.19200
  208     4     1      0.08644      36.91900      11.94600      2.66400
  209     4     1      0.09157      35.28500      14.27800      3.79800
  210     4     1      0.09157      36.91900      14.40200      3.19300
  211     4     1      0.08847      34.50300      13.56500      1.51900
  212     4     1      0.08847      36.14100      13.67200      0.92100
  213     4     1      0.08176      34.52000      16.03200      2.03100
  214     4     1      0.08176      36.17400      16.13900      1.42900
  215     4     1      0.08176      34.86000      15.72300      0.33300
  216     4     1      0.09556      40.54900      13.31500      5.84100
  217     4     1      0.09556      41.32000      13.02200      4.31600
  218     4     1      0.09413      40.08600      14.94900      3.29100
  219     4     1      0.09413      39.37600      15.31200      4.84300
  220     4     1      0.09279      41.66100      15.63800      5.82000
  221     4     1      0.09279      42.37100      15.27800      4.26400
  222     4     1      0.08975      41.22100      17.26500      3.26100
  223     4     1      0.08975      40.43200      17.58400      4.78100
  224     4     1      0.08647      42.28000      19.10600      4.59800
  225     4     1      0.08647      42.65700      17.98300      5.87400
  226     4     1      0.07884      44.19600      16.72500      4.33000
  227     4     1      0.07884      43.74500      17.79300      3.00100
  228     4     1      0.07884      44.63200      18.42500      4.38300
  229     5     2     -0.10902       4.23500      39.00500      9.05600
  230     5     2     -0.09439       3.83700      38.24900      7.75800
  231     5     2     -0.18461       3.07000      39.15300      6.75800
  232     5     2     -0.18712       3.18900      38.69100      5.29100
  233     5     2     -0.17567       4.51500      38.05500     10.25000
  234     5     2     -0.18131       3.34200      37.15900     10.70600
  235     5     2     -0.18009       2.03100      37.89900     11.02900
  236     5     2     -0.17843       2.17000      38.94800     12.14300
  237     5     2     -0.17976       0.82800      39.60400     12.49700
  238     5     2     -0.24048       0.96600      40.66000     13.60000
  239     5     2     -0.18061       5.42600      39.96900      8.83400
  240     5     2     -0.18888       5.51300      41.10200      9.87300
  241     5     2     -0.18283       6.65700      42.08100      9.57100
  242     5     2     -0.17555       6.74100      43.21600     10.60600
  243     5     2     -0.17962       7.93600      44.15800     10.38900
  244     5     2     -0.24317       7.83800      44.99000      9.10200
  245     5     2     -0.18365       3.28300      37.16400      5.18400
  246     5     2     -0.18063       4.52600      36.61400      5.91400
  247     5     2     -0.16492       5.00700      37.51800      7.06800
  248     5     1      0.08871       3.29500      36.85000      4.13900
  249     5     1      0.08871       2.38300      36.72500      5.61800
  250     5     1      0.08340       5.34500      36.48200      5.20700
  251     5     1      0.08340       4.30000      35.61600      6.29300
  252     5     1      0.09051       5.57300      36.91900      7.78200
  253     5     1      0.09051       5.70800      38.25400      6.67300
  254     5     1      0.10316       3.12200      37.47400      8.03500
  255     5     1      0.08762       2.01800      39.17100      7.04900
  256     5     1      0.08762       3.39900      40.19000      6.82000
  257     5     1      0.09487       4.08000      39.13300      4.84200
  258     5     1      0.09487       2.34200      39.06600      4.71300
  259     5     1      0.10027       3.37800      39.62200      9.32900
  260     5     1      0.09641       4.83300      38.63900     11.11300
  261     5     1      0.09641       5.36900      37.41900     10.02100
  262     5     1      0.08608       3.65700      36.60300     11.59100
  263     5     1      0.08608       3.14600      36.39400      9.95500
  264     5     1      0.08644       1.28500      37.16100     11.32800
  265     5     1      0.08644       1.63300      38.36400     10.12600
  266     5     1      0.09157       2.59500      38.48200     13.03300
  267     5     1      0.09157       2.87400      39.72300     11.83600
  268     5     1      0.08847       0.11700      38.84000     12.81700
  269     5     1      0.08847       0.39900      40.06800     11.60700
  270     5     1      0.08176       1.35600      40.22400     14.52100
  271     5     1      0.08176       1.64000      41.46300     13.29800
  272     5     1      0.08176       0.00000      41.11000     13.83200
  273     5     1      0.09556       6.36000      39.40700      8.81600
  274     5     1      0.09556       5.34900      40.42800      7.84700
  275     5     1      0.09413       4.56800      41.64700      9.89500
  276     5     1      0.09413       5.65300      40.68800     10.87100
  277     5     1      0.09279       7.60500      41.54000      9.54800
  278     5     1      0.09279       6.51800      42.50100      8.57500
  279     5     1      0.08975       5.81300      43.79100     10.60400
  280     5     1      0.08975       6.82100      42.78100     11.60300
  281     5     1      0.08647       8.00400      44.83900     11.23900
  282     5     1      0.08647       8.86600      43.58700     10.39000
  283     5     1      0.07884       7.87200      44.36300      8.21200
  284     5     1      0.07884       6.91400      45.56800      9.07200
  285     5     1      0.07884       8.66900      45.69400      9.03300
  286     6     2     -0.10902      40.01000      31.65000      8.92700
  287     6     2     -0.09439      40.63700      30.26300      9.23400
  288     6     2     -0.18461      39.65500      29.09400      8.96100
  289     6     2     -0.18712      40.35700      27.75500      8.65600
  290     6     2     -0.17567      40.72800      32.81600      9.65500
  291     6     2     -0.18131      40.73400      32.76300     11.19900
  292     6     2     -0.18009      39.35200      32.61300     11.86200
  293     6     2     -0.17843      38.37500      33.74800     11.52000
  294     6     2     -0.17976      37.04000      33.61200     12.26400
  295     6     2     -0.24048      36.05800      34.73700     11.91500
  296     6     2     -0.18061      39.91500      31.93000      7.40600
  297     6     2     -0.18888      38.85500      32.98000      7.03100
  298     6     2     -0.18283      38.73600      33.17000      5.51100
  299     6     2     -0.17555      37.67300      34.21500      5.13500
  300     6     2     -0.17962      37.59800      34.50100      3.62700
  301     6     2     -0.24317      37.09200      33.31000      2.79900
  302     6     2     -0.18365      41.67500      27.61800      9.42800
  303     6     2     -0.18063      42.67800      28.72800      9.05200
  304     6     2     -0.16492      42.00000      30.02000      8.55100
  305     6     1      0.08871      42.12300      26.63700      9.25700
  306     6     1      0.08871      41.46300      27.66600     10.49800
  307     6     1      0.08340      43.36000      28.36800      8.28200
  308     6     1      0.08340      43.30100      28.94900      9.92100
  309     6     1      0.09051      42.67300      30.86300      8.70500
  310     6     1      0.09051      41.85400      29.94700      7.47200
  311     6     1      0.10316      40.82800      30.21800     10.30600
  312     6     1      0.08762      39.01100      28.97500      9.83400
  313     6     1      0.08762      38.97800      29.32200      8.13800
  314     6     1      0.09487      40.56500      27.68800      7.58600
  315     6     1      0.09487      39.68900      26.92300      8.88500
  316     6     1      0.10027      38.98700      31.61600      9.30300
  317     6     1      0.09641      40.27300      33.76300      9.36400
  318     6     1      0.09641      41.75700      32.88900      9.30500
  319     6     1      0.08608      41.20500      33.67400     11.57300
  320     6     1      0.08608      41.38400      31.95700     11.53900
  321     6     1      0.08644      39.49300      32.57900     12.94300
  322     6     1      0.08644      38.91400      31.65000     11.59600
  323     6     1      0.09157      38.83200      34.70900     11.76100
  324     6     1      0.09157      38.18300      33.76000     10.44600
  325     6     1      0.08847      37.21600      33.61000     13.34100
  326     6     1      0.08847      36.58200      32.65000     12.02700
  327     6     1      0.08176      36.46500      35.71400     12.17600
  328     6     1      0.08176      35.82600      34.74400     10.85000
  329     6     1      0.08176      35.11900      34.61600     12.45700
  330     6     1      0.09556      40.89100      32.23200      7.02500
  331     6     1      0.09556      39.67300      31.00800      6.87700
  332     6     1      0.09413      37.88600      32.67800      7.43300
  333     6     1      0.09413      39.09200      33.93800      7.49200
  334     6     1      0.09279      39.70300      33.47300      5.10500
  335     6     1      0.09279      38.49300      32.21400      5.04700
  336     6     1      0.08975      36.69400      33.89800      5.49900
  337     6     1      0.08975      37.89600      35.15000      5.65300
  338     6     1      0.08647      36.92900      35.34700      3.46400
  339     6     1      0.08647      38.57500      34.81800      3.25900
  340     6     1      0.07884      37.78100      32.46600      2.84300
  341     6     1      0.07884      36.11800      32.96800      3.15000
  342     6     1      0.07884      36.98600      33.58700      1.75000
  343     7     2     -0.10902      29.79400      19.64100     36.36700
  344     7     2     -0.09439      28.50100      20.25300     36.97400
  345     7     2     -0.18461      28.33400      19.91300     38.47700
  346     7     2     -0.18712      27.47400      20.93400     39.25000
  347     7     2     -0.17567      29.73600      19.50700     34.82200
  348     7     2     -0.18131      28.61600      18.60900     34.25200
  349     7     2     -0.18009      28.55900      17.18000     34.82100
  350     7     2     -0.17843      29.84900      16.37400     34.60000
  351     7     2     -0.17976      29.72600      14.92900     35.10300
  352     7     2     -0.24048      31.01600      14.12600     34.89600
  353     7     2     -0.18061      31.06800      20.40700     36.80200
  354     7     2     -0.18888      32.35900      19.57500     36.70200
  355     7     2     -0.18283      33.58700      20.34200     37.21800
  356     7     2     -0.17555      34.87600      19.50900     37.12400
  357     7     2     -0.17962      36.13800      20.28200     37.54000
  358     7     2     -0.24317      36.17400      20.64500     39.03200
  359     7     2     -0.18365      26.37000      21.52800     38.36700
  360     7     2     -0.18063      26.95000      22.28100     37.15200
  361     7     2     -0.16492      28.33900      21.76700     36.72000
  362     7     1      0.08871      25.72800      22.19400     38.94700
  363     7     1      0.08871      25.72500      20.71900     38.01900
  364     7     1      0.08340      27.02400      23.34600     37.37500
  365     7     1      0.08340      26.24900      22.20000     36.31900
  366     7     1      0.09051      28.50200      22.01000     35.67000
  367     7     1      0.09051      29.10500      22.30900     37.27600
  368     7     1      0.10316      27.65100      19.77600     36.48600
  369     7     1      0.08762      27.88100      18.92300     38.55800
  370     7     1      0.08762      29.29700      19.82500     38.97900
  371     7     1      0.09487      28.11000      21.74400     39.61400
  372     7     1      0.09487      27.04600      20.46500     40.13800
  373     7     1      0.10027      29.87900      18.63400     36.77500
  374     7     1      0.09641      30.68500      19.11800     34.45400
  375     7     1      0.09641      29.65300      20.49600     34.37200
  376     7     1      0.08608      28.74000      18.55100     33.16900
  377     7     1      0.08608      27.64800      19.09000     34.39200
  378     7     1      0.08644      27.72700      16.65500     34.34700
  379     7     1      0.08644      28.31500      17.21100     35.88400
  380     7     1      0.09157      30.10100      16.37200     33.53900
  381     7     1      0.09157      30.68000      16.85900     35.11400
  382     7     1      0.08847      28.90400      14.42800     34.58900
  383     7     1      0.08847      29.47000      14.92800     36.16400
  384     7     1      0.08176      31.28300      14.07000     33.84000
  385     7     1      0.08176      31.85300      14.57600     35.43000
  386     7     1      0.08176      30.90200      13.10500     35.26100
  387     7     1      0.09556      31.16800      21.32200     36.21700
  388     7     1      0.09556      30.96300      20.73700     37.83600
  389     7     1      0.09413      32.24300      18.65400     37.27600
  390     7     1      0.09413      32.53600      19.27400     35.67100
  391     7     1      0.09279      33.70700      21.26400     36.64600
  392     7     1      0.09279      33.41500      20.64100     38.25200
  393     7     1      0.08975      34.78100      18.60600     37.72900
  394     7     1      0.08975      35.00300      19.16800     36.09500
  395     7     1      0.08647      37.01300      19.67300     37.30900
  396     7     1      0.08647      36.23700      21.18700     36.93700
  397     7     1      0.07884      35.37700      21.33900     39.29800
  398     7     1      0.07884      36.07100      19.75800     39.65800
  399     7     1      0.07884      37.12000      21.12300     39.29000
  400     8     2     -0.10902      12.28300      43.62400     41.82400
  401     8     2     -0.09439      12.73300      45.07900     41.51600
  402     8     2     -0.18461      12.52600      46.03100     42.72200
  403     8     2     -0.18712      13.46600      47.25500     42.71100
  404     8     2     -0.17567      11.98400      42.79700     40.54600
  405     8     2     -0.18131      10.86100      43.32900     39.63000