LAMMPS data file of the system for full atom style

    4995 atoms
    5130 bonds
   10530 angles
   17010 dihedrals

    2 atom types
    2 bond types
    3 angle types
    2 dihedral types

    0.000000    50.000000 xlo xhi
    0.000000    50.000000 ylo yhi
    0.000000    50.000000 zlo zhi

 Masses 

    1       1.0080
    2      12.0110

 Pair Coeffs 

    1       0.0300       2.5000
    2       0.0660       3.5000

 Bond Coeffs 

    1     268.0000        1.5290
    2     340.0000        1.0900

 Angle Coeffs 

    1      33.0000      107.8000
    2      37.5000      110.7000
    3      58.3500      112.7000

 Dihedral Coeffs 

    1       0.0000        0.0000       0.3000        0.0000
    2       0.8500       -0.2000       0.2000        0.0000

 Atoms 

    1     1     2     -0.15669      36.86800      38.75100     12.75300
    2     1     2     -0.13018      36.29400      40.03900     13.38600
    3     1     2     -0.17188      35.55700      39.71100     14.70100
    4     1     2     -0.16909      34.97000      40.96900     15.35900
    5     1     2     -0.12034      37.91500      38.96600     11.63800
    6     1     2     -0.18262      39.27900      39.46400     12.18300
    7     1     2     -0.18066      40.30100      38.32700     12.34200
    8     1     2     -0.18355      40.60700      37.63900     10.99700
    9     1     2     -0.18175      39.40400      37.64600     10.03100
   10     1     2     -0.18627      38.06900      37.68100     10.78800
   11     1     2     -0.17070      34.03500      41.71600     14.39700
   12     1     2     -0.18111      34.75600      42.05500     13.08500
   13     1     2     -0.17723      35.34700      40.79600     12.42800
   14     1     1      0.08281      33.15800      41.10200     14.18700
   15     1     1      0.08281      33.66500      42.62800     14.86800
   16     1     1      0.08795      34.06500      42.54300     12.39600
   17     1     1      0.08795      35.55300      42.77400     13.28000
   18     1     1      0.09677      34.53800      40.13900     12.11100
   19     1     1      0.09677      35.87300      41.09100     11.51900
   20     1     1      0.10407      37.12000      40.70500     13.63900
   21     1     1      0.08792      36.23900      39.22400     15.40100
   22     1     1      0.08792      34.75600      38.99600     14.50800
   23     1     1      0.08383      34.42800      40.69500     16.26700
   24     1     1      0.08383      35.77800      41.63000     15.67400
   25     1     1      0.09459      37.32200      38.13100     13.52800
   26     1     1      0.09459      36.03600      38.16100     12.36400
   27     1     1      0.09991      37.54400      39.73900     10.96400
   28     1     1      0.09244      39.69200      40.20100     11.49200
   29     1     1      0.09244      39.16300      39.99100     13.12900
   30     1     1      0.09686      39.90200      37.59400     13.04500
   31     1     1      0.09686      41.22400      38.69900     12.78900
   32     1     1      0.08731      40.92400      36.61300     11.18900
   33     1     1      0.08731      41.45300      38.12600     10.51000
   34     1     1      0.08776      39.45100      36.78000      9.37000
   35     1     1      0.08776      39.46300      38.52300      9.38300
   36     1     1      0.09579      38.01200      36.79800     11.42700
   37     1     1      0.09579      37.23600      37.59700     10.08900
   38     2     2     -0.15669      26.54200      46.86500     34.86600
   39     2     2     -0.13018      27.92300      47.11300     34.21500
   40     2     2     -0.17188      29.04100      47.02200     35.27400
   41     2     2     -0.16909      30.43000      47.26500     34.66500
   42     2     2     -0.12034      25.38400      46.58100     33.88300
   43     2     2     -0.18262      25.47900      45.17500     33.23500
   44     2     2     -0.18066      24.58100      44.14200     33.93300
   45     2     2     -0.18355      23.09300      44.54100     33.86900
   46     2     2     -0.18175      22.87900      46.06800     33.86200
   47     2     2     -0.18627      24.02000      46.80400     34.57900
   48     2     2     -0.17070      30.49100      48.61900     33.94200
   49     2     2     -0.18111      29.38700      48.72300     32.88000
   50     2     2     -0.17723      27.99700      48.47500     33.49000
   51     2     1      0.08281      30.38200      49.42700     34.66600
   52     2     1      0.08281      31.47000      48.75100     33.47900
   53     2     1      0.08795      29.41600      49.70700     32.40900
   54     2     1      0.08795      29.57300      47.99800     32.08700
   55     2     1      0.09677      27.75800      49.28000     34.18500
   56     2     1      0.09677      27.25300      48.53000     32.69400
   57     2     1      0.10407      28.11100      46.33000     33.48200
   58     2     1      0.08792      29.02500      46.04000     35.75200
   59     2     1      0.08792      28.86100      47.74900     36.06800
   60     2     1      0.08383      31.19100      47.22700     35.44700
   61     2     1      0.08383      30.67000      46.46300     33.96500
   62     2     1      0.09459      26.60900      46.02700     35.56200
   63     2     1      0.09459      26.29400      47.73100     35.48200
   64     2     1      0.09991      25.43800      47.30700     33.07100
   65     2     1      0.09244      25.17400      45.24300     32.18900
   66     2     1      0.09244      26.50600      44.81400     33.21100
   67     2     1      0.09686      24.89100      44.05700     34.97500
   68     2     1      0.09686      24.72100      43.15300     33.49600
   69     2     1      0.08731      22.57100      44.09500     34.71700
   70     2     1      0.08731      22.62800      44.11500     32.97800
   71     2     1      0.08776      21.91700      46.31300     34.31500
   72     2     1      0.08776      22.82600      46.42400     32.83100
   73     2     1      0.09579      24.06200      46.45000     35.61200
   74     2     1      0.09579      23.80300      47.87100     34.63800
   75     3     2     -0.15669      31.35700      45.90200     20.13200
   76     3     2     -0.13018      31.45200      44.36000     20.19700
   77     3     2     -0.17188      30.62600      43.72100     19.06200
   78     3     2     -0.16909      30.69400      42.18700     19.09500
   79     3     2     -0.12034      32.39900      46.67000     20.97600
   80     3     2     -0.18262      33.82600      46.60000     20.37300
   81     3     2     -0.18066      34.18400      47.85300     19.55800
   82     3     2     -0.18355      34.14900      49.12900     20.42400
   83     3     2     -0.18175      33.11000      49.05500     21.56200
   84     3     2     -0.18627      31.93900      48.13000     21.20100
   85     3     2     -0.17070      30.24100      41.63900     20.45600
   86     3     2     -0.18111      31.05900      42.26100     21.59700
   87     3     2     -0.17723      30.99400      43.79700     21.56100
   88     3     1      0.08281      29.18200      41.85300     20.60400
   89     3     1      0.08281      30.34100      40.55300     20.47300
   90     3     1      0.08795      30.69400      41.89600     22.55800
   91     3     1      0.08795      32.09800      41.93800     21.52100
   92     3     1      0.09677      29.97400      44.12100     21.77300
   93     3     1      0.09677      31.61100      44.19100     22.36900
   94     3     1      0.10407      32.49000      44.06500     20.04300
   95     3     1      0.08792      30.98200      44.07600     18.09300
   96     3     1      0.08792      29.58400      44.03900     19.13700
   97     3     1      0.08383      30.07200      41.77000     18.30100
   98     3     1      0.08383      31.71400      41.86000     18.88800
   99     3     1      0.09459      31.44900      46.23300     19.09700
  100     3     1      0.09459      30.35100      46.19500     20.43900
  101     3     1      0.09991      32.45000      46.20700     21.96200
  102     3     1      0.09244      34.55100      46.50000     21.18300
  103     3     1      0.09244      33.95900      45.71100     19.75900
  104     3     1      0.09686      33.47300      47.95000     18.73700
  105     3     1      0.09686      35.16500      47.74300     19.09500
  106     3     1      0.08731      33.93900      49.98500     19.78200
  107     3     1      0.08731      35.13300      49.31600     20.85600
  108     3     1      0.08776      32.75100      50.05600     21.80500
  109     3     1      0.08776      33.58900      48.67800     22.46800
  110     3     1      0.09579      31.45900      48.51700     20.30000
  111     3     1      0.09579      31.17800      48.16300     21.98200
  112     4     2     -0.15669      35.41300      46.41000      4.92800
  113     4     2     -0.13018      34.25500      45.84900      5.78500
  114     4     2     -0.17188      33.86400      44.43700      5.30200
  115     4     2     -0.16909      32.71200      43.84500      6.13000
  116     4     2     -0.12034      36.13300      47.64700      5.51000
  117     4     2     -0.18262      37.02700      47.30200      6.73000
  118     4     2     -0.18066      38.50700      47.14300      6.35000
  119     4     2     -0.18355      39.08800      48.44000      5.75100
  120     4     2     -0.18175      38.03900      49.26700      4.98000
  121     4     2     -0.18627      36.92800      48.37900      4.40200
  122     4     2     -0.17070      31.48700      44.77000      6.11800
  123     4     2     -0.18111      31.85900      46.17900      6.60200
  124     4     2     -0.17723      33.01400      46.76900      5.77600
  125     4     1      0.08281      31.07700      44.82500      5.10800
  126     4     1      0.08281      30.69900      44.35400      6.74700
  127     4     1      0.08795      30.98800      46.83400      6.54400
  128     4     1      0.08795      32.14400      46.14100      7.65400
  129     4     1      0.09677      32.68000      46.93200      4.75100
  130     4     1      0.09677      33.26100      47.75300      6.17600
  131     4     1      0.10407      34.59500      45.75200      6.81600
  132     4     1      0.08792      34.72600      43.76900      5.35800
  133     4     1      0.08792      33.57400      44.47100      4.25100
  134     4     1      0.08383      32.44100      42.86300      5.73900
  135     4     1      0.08383      33.04300      43.68500      7.15700
  136     4     1      0.09459      36.15900      45.63100      4.76200
  137     4     1      0.09459      35.02200      46.64800      3.93800
  138     4     1      0.09991      35.37700      48.35000      5.86200
  139     4     1      0.09244      36.94700      48.10200      7.46900
  140     4     1      0.09244      36.67900      46.40500      7.24000
  141     4     1      0.09686      38.59600      46.33300      5.62500
  142     4     1      0.09686      39.09500      46.83600      7.21600
  143     4     1      0.08731      39.91900      48.18300      5.09300
  144     4     1      0.08731      39.51500      49.05900      6.54100
  145     4     1      0.08776      38.52500      49.84100      4.18900
  146     4     1      0.08776      37.58800      50.00100      5.65100
  147     4     1      0.09579      37.38500      47.65400      3.72500
  148     4     1      0.09579      36.25000      48.97300      3.78900
  149     5     2     -0.15669       2.31100      40.13600     23.89600
  150     5     2     -0.13018       2.86900      38.81300     23.32200
  151     5     2     -0.17188       2.72800      38.79100     21.78600
  152     5     2     -0.16909       3.27000      37.48800     21.17800
  153     5     2     -0.12034       2.70100      40.44300     25.35900
  154     5     2     -0.18262       4.19000      40.85000     25.51100
  155     5     2     -0.18066       4.38000      42.37400     25.58300
  156     5     2     -0.18355       3.64600      42.98600     26.79300
  157     5     2     -0.18175       2.36600      42.21400     27.17300
  158     5     2     -0.18627       1.74900      41.50600     25.95800
  159     5     2     -0.17070       2.58400      36.26000     21.79200
  160     5     2     -0.18111       2.72100      36.26400     23.32200
  161     5     2     -0.17723       2.18200      37.56900     23.93000
  162     5     1      0.08281       1.52800      36.25200     21.51800
  163     5     1      0.08281       3.01500      35.34600     21.38100
  164     5     1      0.08795       2.19000      35.41000     23.74500
  165     5     1      0.08795       3.76900      36.13900     23.59600
  166     5     1      0.09677       1.10500      37.62500     23.77100
  167     5     1      0.09677       2.32800      37.53700     25.01000
  168     5     1      0.10407       3.93400      38.75300     23.54700
  169     5     1      0.08792       3.25800      39.64000     21.34900
  170     5     1      0.08792       1.68000      38.91200     21.50800
  171     5     1      0.08383       3.12300      37.49400     20.09600
  172     5     1      0.08383       4.34700      37.42800     21.34000
  173     5     1      0.09459       2.63800      40.97200     23.27600
  174     5     1      0.09459       1.22400      40.11700     23.80400
  175     5     1      0.09991       2.56000      39.53600     25.94900
  176     5     1      0.09244       4.58800      40.41200     26.42800
  177     5     1      0.09244       4.80000      40.44000     24.70800
  178     5     1      0.09686       3.99800      42.81700     24.66200
  179     5     1      0.09686       5.44000      42.62700     25.62200
  180     5     1      0.08731       3.40300      44.02500     26.57000
  181     5     1      0.08731       4.31000      43.01600     27.65900
  182     5     1      0.08776       1.64400      42.89200     27.63200
  183     5     1      0.08776       2.60300      41.46600     27.93200
  184     5     1      0.09579       1.50600      42.26000     25.20700
  185     5     1      0.09579       0.80100      41.04200     26.23300
  186     6     2     -0.15669      40.58800      33.47700     45.76600
  187     6     2     -0.13018      41.26700      32.26000     45.09600
  188     6     2     -0.17188      42.28000      31.61100     46.06100
  189     6     2     -0.16909      42.97800      30.39600     45.42800
  190     6     2     -0.12034      39.31800      34.00300     45.06000
  191     6     2     -0.18262      38.10000      33.05900     45.23700
  192     6     2     -0.18066      37.15600      33.51800     46.36000
  193     6     2     -0.18355      36.57300      34.91800     46.08200
  194     6     2     -0.18175      37.53300      35.82100     45.28100
  195     6     2     -0.18627      39.00200      35.44500     45.52500
  196     6     2     -0.17070      43.66600      30.77500     44.10900
  197     6     2     -0.18111      42.66800      31.41800     43.13500
  198     6     2     -0.17723      41.96700      32.63000     43.77000
  199     6     1      0.08281      44.48500      31.46800     44.30800
  200     6     1      0.08281      44.11600      29.89100     43.65500
  201     6     1      0.08795      43.18300      31.72200     42.22300
  202     6     1      0.08795      41.92300      30.68100     42.83500
  203     6     1      0.09677      42.69800      33.42100     43.94400
  204     6     1      0.09677      41.25000      33.03300     43.05400
  205     6     1      0.10407      40.50700      31.51000     44.87700
  206     6     1      0.08792      41.77700      31.29900     46.97800
  207     6     1      0.08792      43.03000      32.34400     46.36000
  208     6     1      0.08383      43.71000      29.98400     46.12500
  209     6     1      0.08383      42.24800      29.60600     45.24900
  210     6     1      0.09459      40.32600      33.23200     46.79600
  211     6     1      0.09459      41.32300      34.28000     45.84000
  212     6     1      0.09991      39.52000      34.06200     43.99000
  213     6     1      0.09244      37.53300      33.03000     44.30400
  214     6     1      0.09244      38.41300      32.03200     45.41500
  215     6     1      0.09686      37.71200      33.53400     47.29800
  216     6     1      0.09686      36.34900      32.79900     46.50100
  217     6     1      0.08731      36.32200      35.39100     47.03200
  218     6     1      0.08731      35.63200      34.83100     45.53600
  219     6     1      0.08776      37.35600      36.86800     45.53100
  220     6     1      0.08776      37.31900      35.72500     44.21500
  221     6     1      0.09579      39.21200      35.55200     46.59200
  222     6     1      0.09579      39.66100      36.15100     45.01900
  223     7     2     -0.15669      45.16600      43.04600      7.80500
  224     7     2     -0.13018      44.81000      41.57900      8.13900
  225     7     2     -0.17188      44.14600      40.89600      6.92600
  226     7     2     -0.16909      43.77500      39.43500      7.22100
  227     7     2     -0.12034      46.13800      43.73600      8.78800
  228     7     2     -0.18262      47.59300      43.21400      8.65800
  229     7     2     -0.18066      48.47400      44.13400      7.79800
  230     7     2     -0.18355      48.58200      45.55000      8.40100
  231     7     2     -0.18175      47.31600      45.97300      9.17300
  232     7     2     -0.18627      46.06100      45.27400      8.63100
  233     7     2     -0.17070      42.86600      39.33000      8.45400
  234     7     2     -0.18111      43.51600      40.00000      9.67200
  235     7     2     -0.17723      43.89100      41.46100      9.37500
  236     7     1      0.08281      41.90500      39.80200      8.24300
  237     7     1      0.08281      42.65200      38.28200      8.67200
  238     7     1      0.08795      42.83800      39.95600     10.52600
  239     7     1      0.08795      44.40900      39.44500      9.96200
  240     7     1      0.09677      42.98200      42.04400      9.21900
  241     7     1      0.09677      44.37400      41.88400     10.25700
  242     7     1      0.10407      45.72900      41.03400      8.35100
  243     7     1      0.08792      44.81500      40.93000      6.06400
  244     7     1      0.08792      43.24900      41.44600      6.63600
  245     7     1      0.08383      43.27800      38.99500      6.35400
  246     7     1      0.08383      44.68200      38.85100      7.38200
  247     7     1      0.09459      45.59900      43.10100      6.80500
  248     7     1      0.09459      44.23800      43.61800      7.74700
  249     7     1      0.09991      45.81300      43.51300      9.80500
  250     7     1      0.09244      48.03700      43.14500      9.65200
  251     7     1      0.09244      47.62000      42.20100      8.26000
  252     7     1      0.09686      48.04500      44.19500      6.79800
  253     7     1      0.09686      49.46900      43.70500      7.67200
  254     7     1      0.08731      48.78400      46.26000      7.59800
  255     7     1      0.08731      49.44100      45.60800      9.07100
  256     7     1      0.08776      47.20100      47.05700      9.13600
  257     7     1      0.08776      47.43100      45.71800     10.22900
  258     7     1      0.09579      45.94600      45.54000      7.57800
  259     7     1      0.09579      45.17000      45.65400      9.13300
  260     8     2     -0.15669      42.72800      44.22500     33.84100
  261     8     2     -0.13018      43.69700      43.08700     33.44400
  262     8     2     -0.17188      44.70200      42.81400     34.58200
  263     8     2     -0.16909      45.68500      41.68900     34.22300
  264     8     2     -0.12034      41.46800      44.36400     32.95900
  265     8     2     -0.18262      40.44000      43.22700     33.19600
  266     8     2     -0.18066      39.30700      43.64400     34.14600
  267     8     2     -0.18355      38.50200      44.83500     33.58900
  268     8     2     -0.18175      39.35500      45.78600     32.72500
  269     8     2     -0.18627      40.83200      45.76300     33.14500
  270     8     2     -0.17070      46.43100      41.99900     32.91700
  271     8     2     -0.18111      45.44400      42.26700     31.77200
  272     8     2     -0.17723      44.45800      43.39000     32.13400
  273     8     1      0.08281      47.07500      42.86800     33.05900
  274     8     1      0.08281      47.08900      41.16800     32.65700
  275     8     1      0.08795      45.98900      42.53000     30.86400
  276     8     1      0.08795      44.89100      41.35500     31.54400
  277     8     1      0.09677      44.99900      44.33200     32.22800
  278     8     1      0.09677      43.76100      43.52300     31.30500
  279     8     1      0.10407      43.12400      42.17200     33.29600
  280     8     1      0.08792      44.16900      42.54700     35.49600
  281     8     1      0.08792      45.26000      43.72300     34.81000
  282     8     1      0.08383      46.40000      41.54700     35.03500
  283     8     1      0.08383      45.14400      40.74700     34.12300
  284     8     1      0.09459      42.40400      44.08800     34.87500
  285     8     1      0.09459      43.28300      45.16400     33.83600
  286     8     1      0.09991      41.77300      44.30100     31.91400
  287     8     1      0.09244      39.99700      42.94100     32.24000
  288     8     1      0.09244      40.92200      42.32400     33.57000
  289     8     1      0.09686      39.74100      43.91600     35.10900
  290     8     1      0.09686      38.64100      42.80300     34.34400
  291     8     1      0.08731      38.06000      45.38400     34.42300
  292     8     1      0.08731      37.66200      44.47500     32.99300
  293     8     1      0.08776      38.95500      46.80000     32.77900
  294     8     1      0.08776      39.28400      45.48900     31.67700
  295     8     1      0.09579      40.89700      46.07000     34.19100
  296     8     1      0.09579      41.39700      46.50600     32.58000
  297     9     2     -0.15669       6.27400      17.18400     16.61600
  298     9     2     -0.13018       5.21800      16.66600     15.61200
  299     9     2     -0.17188       5.80900      16.61400     14.18800
  300     9     2     -0.16909       4.78700      16.10600     13.16000
  301     9     2     -0.12034       5.94000      16.95800     18.10700
  302     9     2     -0.18262       6.07000      15.47300     18.53300
  303     9     2     -0.18066       7.41100      15.17100     19.22100
  304     9     2     -0.18355       7.59300      16.00000     20.50900
  305     9     2     -0.18175       6.90000      17.37600     20.44100
  306     9     2     -0.18627       6.79800      17.89000     18.99800
  307     9     2     -0.17070       3.51100      16.96000     13.17500
  308     9     2     -0.18111       2.90700      17.01700     14.58500
  309     9     2     -0.17723       3.93100      17.52200     15.61400
  310     9     1      0.08281       3.74100      17.96900     12.83200
  311     9     1      0.08281       2.78200      16.55500     12.47100
  312     9     1      0.08795       2.02800      17.66400     14.58700
  313     9     1      0.08795       2.55700      16.02500     14.87400
  314     9     1      0.09677       4.17700      18.56200     15.40100
  315     9     1      0.09677       3.46600      17.51600     16.60100
  316     9     1      0.10407       4.94500      15.64600     15.88300
  317     9     1      0.08792       6.68800      15.96700     14.17100
  318     9     1      0.08792       6.15600      17.60500     13.89400
  319     9     1      0.08383       5.22800      16.11400     12.16100
  320     9     1      0.08383       4.53600      15.06600     13.37400
  321     9     1      0.09459       7.23800      16.71500     16.41000
  322     9     1      0.09459       6.42600      18.24800     16.43300
  323     9     1      0.09991       4.90100      17.24400     18.27300
  324     9     1      0.09244       5.26600      15.23000     19.23000
  325     9     1      0.09244       5.93100      14.80100     17.68800
  326     9     1      0.09686       8.21900      15.39700     18.52500
  327     9     1      0.09686       7.49700      14.10800     19.44700
  328     9     1      0.08731       8.66000      16.12900     20.69800
  329     9     1      0.08731       7.20400      15.45100     21.36700
  330     9     1      0.08776       7.43000      18.09300     21.06900
  331     9     1      0.08776       5.89300      17.29800     20.85700
  332     9     1      0.09579       7.80800      17.97500     18.59100
  333     9     1      0.09579       6.38500      18.89900     18.98400
  334    10     2     -0.15669      19.51900      33.43100     33.25500
  335    10     2     -0.13018      18.13300      32.76100     33.40300
  336    10     2     -0.17188      17.05600      33.81800     33.72400
  337    10     2     -0.16909      15.66300      33.19000     33.88000
  338    10     2     -0.12034      20.61300      32.56000     32.59700
  339    10     2     -0.18262      20.39400      32.37200     31.07300
  340    10     2     -0.18066      21.24600      33.33500     30.23200
  341    10     2     -0.18355      22.75500      33.12500     30.47400
  342    10     2     -0.18175      23.07300      32.64900     31.90700
  343    10     2     -0.18627      22.01700      33.13000     32.91200
  344    10     2     -0.17070      15.66600      32.09100     34.95300
  345    10     2     -0.18111      16.72900      31.02700     34.64400
  346    10     2     -0.17723      18.12300      31.65700     34.48300
  347    10     1      0.08281      15.86100      32.53200     35.93100
  348    10     1      0.08281      14.68100      31.62700     35.01500
  349    10     1      0.08795      16.74900      30.28000     35.43800
  350    10     1      0.08795      16.46100      30.49600     33.73000
  351    10     1      0.09677      18.44600      32.07000     35.43900
  352    10     1      0.09677      18.83600      30.86900     34.23600
  353    10     1      0.10407      17.86000      32.30500     32.45200
  354    10     1      0.08792      17.02400      34.57200     32.93400
  355    10     1      0.08792      17.31900      34.34900     34.64000
  356    10     1      0.08383      14.93500      33.96000     34.13900
  357    10     1      0.08383      15.34000      32.77200     32.92600
  358    10     1      0.09459      19.42400      34.35000     32.67500
  359    10     1      0.09459      19.85200      33.74900     34.24400
  360    10     1      0.09991      20.57500      31.56700     33.04600
  361    10     1      0.09244      20.65900      31.35000     30.79800
  362    10     1      0.09244      19.34400      32.47900     30.80400
  363    10     1      0.09686      20.97500      34.35900     30.49100
  364    10     1      0.09686      21.02000      33.22300     29.17100
  365    10     1      0.08731      23.27900      34.05800     30.26600
  366    10     1      0.08731      23.15100      32.39700     29.76400
  367    10     1      0.08776      24.06800      32.98800     32.20000
  368    10     1      0.08776      23.10800      31.55800     31.92900
  369    10     1      0.09579      21.99300      34.22200     32.89100
  370    10     1      0.09579      22.30900      32.85700     33.92700
  371    11     2     -0.15669      20.05900      35.17200     38.93700
  372    11     2     -0.13018      18.96000      36.07000     38.32400
  373    11     2     -0.17188      18.69300      37.28900     39.23100
  374    11     2     -0.16909      17.60200      38.20600     38.65500
  375    11     2     -0.12034      20.66900      34.12200     37.98300
  376    11     2     -0.18262      21.59600      34.75200     36.91100
  377    11     2     -0.18066      23.08300      34.65700     37.28800
  378    11     2     -0.18355      23.54300      33.19300     37.44000
  379    11     2     -0.18175      22.42100      32.25900     37.93900
  380    11     2     -0.18627      21.39000      33.01500     38.79000
  381    11     2     -0.17070      16.29900      37.43300     38.40600
  382    11     2     -0.18111      16.54800      36.21900     37.49900
  383    11     2     -0.17723      17.64200      35.30400     38.07400
  384    11     1      0.08281      15.88100      37.10200     39.35700
  385    11     1      0.08281      15.55500      38.09000     37.95500
  386    11     1      0.08795      15.62200      35.65500     37.37000
  387    11     1      0.08795      16.84000      36.55800     36.50500
  388    11     1      0.09677      17.28900      34.85800     39.00500
  389    11     1      0.09677      17.80200      34.47500     37.38300
  390    11     1      0.10407      19.31200      36.45400     37.36700
  391    11     1      0.08792      19.61100      37.86400     39.36600
  392    11     1      0.08792      18.39500      36.95400     40.22500
  393    11     1      0.08383      17.41700      39.03700     39.33800
  394    11     1      0.08383      17.95100      38.65000     37.72100
  395    11     1      0.09459      20.87000      35.79400     39.32000
  396    11     1      0.09459      19.64200      34.67200     39.81300
  397    11     1      0.09991      19.85500      33.63100     37.44700
  398    11     1      0.09244      21.44900      34.23200     35.96200
  399    11     1      0.09244      21.33200      35.78900     36.71300
  400    11     1      0.09686      23.24000      35.18900     38.22700
  401    11     1      0.09686      23.70100      35.16700     36.54700
  402    11     1      0.08731      24.39000      33.15900     38.12700
  403    11     1      0.08731      23.91800      32.81600     36.48800
  404    11     1      0.08776      22.85000      31.42800     38.50100
  405    11     1      0.08776      21.91000      31.81400     37.08300