LAMMPS data file of the system for full atom style

    4950 atoms
    5310 bonds
   11340 angles
   20250 dihedrals

    2 atom types
    2 bond types
    3 angle types
    2 dihedral types

    0.000000    50.000000 xlo xhi
    0.000000    50.000000 ylo yhi
    0.000000    50.000000 zlo zhi

 Masses 

    1       1.0080
    2      12.0110

 Pair Coeffs 

    1       0.0300       2.5000
    2       0.0660       3.5000

 Bond Coeffs 

    1     268.0000        1.5290
    2     340.0000        1.0900

 Angle Coeffs 

    1      33.0000      107.8000
    2      37.5000      110.7000
    3      58.3500      112.7000

 Dihedral Coeffs 

    1       0.0000        0.0000       0.3000        0.0000
    2       0.8500       -0.2000       0.2000        0.0000

 Atoms 

    1     1     2     -0.17418      34.56900       1.19300     29.64300
    2     1     2     -0.12769      35.85200       1.15800     28.81300
    3     1     2     -0.07474      37.24900       1.07300     29.48200
    4     1     2     -0.09519      38.37300       1.65800     28.55700
    5     1     2     -0.17646      37.99000       1.52100     27.05700
    6     1     2     -0.17534      38.80100       3.11600     28.87000
    7     1     2     -0.18205      38.90000       3.42600     30.36800
    8     1     2     -0.17428      37.60100       3.05400     31.08800
    9     1     2     -0.16269      37.34200       1.55100     30.95000
   10     1     2     -0.11851      33.52400       1.48000     28.55000
   11     1     2     -0.07046      32.04900       1.75700     28.95500
   12     1     2     -0.07312      31.74900       3.22900     29.30600
   13     1     2     -0.16300      32.27200       4.16600     28.20600
   14     1     2     -0.16731      33.77700       3.99800     27.97500
   15     1     2     -0.10570      34.19800       2.54600     27.64400
   16     1     2     -0.17236      32.19100       3.61600     30.73700
   17     1     2     -0.17626      31.94700       2.50600     31.78200
   18     1     2     -0.17655      30.96600       1.43300     31.28900
   19     1     2     -0.16854      31.46800       0.76300     29.99500
   20     1     2     -0.16704      36.65000       2.21300     26.67800
   21     1     2     -0.12989      35.71600       2.36100     27.89200
   22     1     1      0.08576      36.16400       1.63800     25.88700
   23     1     1      0.08576      36.84200       3.20100     26.25900
   24     1     1      0.11757      36.06500       3.21300     28.47000
   25     1     1      0.11069      35.77600       0.27000     28.18000
   26     1     1      0.09268      37.44000       0.00100     29.54100
   27     1     1      0.08854      39.26100       1.04700     28.73000
   28     1     1      0.08431      37.90400       0.45700     26.83000
   29     1     1      0.08431      38.79400       1.88700     26.41900
   30     1     1      0.08739      39.76300       3.31700     28.39700
   31     1     1      0.08739      38.11700       3.83000     28.41600
   32     1     1      0.09409      39.11500       4.48600     30.51200
   33     1     1      0.09409      39.73700       2.88000     30.80600
   34     1     1      0.07875      36.76100       3.62000     30.68300
   35     1     1      0.07875      37.67100       3.32000     32.14200
   36     1     1      0.08678      36.46100       1.25800     31.51800
   37     1     1      0.08678      38.17000       1.02400     31.42800
   38     1     1      0.10307      34.59400       2.00500     30.36800
   39     1     1      0.10307      34.40300       0.25700     30.17500
   40     1     1      0.09120      33.47800       0.56300     27.95700
   41     1     1      0.08511      31.48600       1.57800     28.03700
   42     1     1      0.08787      30.66200       3.33100     29.29300
   43     1     1      0.08162      31.74300       3.96200     27.27400
   44     1     1      0.08162      32.04700       5.20200     28.46000
   45     1     1      0.08273      34.10500       4.66100     27.17400
   46     1     1      0.08273      34.28900       4.35000     28.87000
   47     1     1      0.11038      33.94000       2.33300     26.60400
   48     1     1      0.08044      33.24500       3.88600     30.76500
   49     1     1      0.08044      31.65500       4.51900     31.03300
   50     1     1      0.08672      32.89400       2.02500     32.02500
   51     1     1      0.08672      31.59200       2.94600     32.71500
   52     1     1      0.08563      30.81100       0.67900     32.06100
   53     1     1      0.08563      29.99000       1.89000     31.11500
   54     1     1      0.08634      32.19900      -0.00200     30.24700
   55     1     1      0.08634      30.64000       0.21300     29.54700
   56     2     2     -0.17418      35.61800      33.13300     28.21200
   57     2     2     -0.12769      35.81300      33.96300     29.48200
   58     2     2     -0.07474      35.78300      35.51400     29.45000
   59     2     2     -0.09519      36.58600      36.13500     30.64500
   60     2     2     -0.17646      36.60000      35.17600     31.86800
   61     2     2     -0.17534      38.02800      36.59800     30.31000
   62     2     2     -0.18205      38.15600      37.29100     28.94800
   63     2     2     -0.17428      37.57100      36.41700     27.83500
   64     2     2     -0.16269      36.08000      36.18300     28.08700
   65     2     2     -0.11851      35.93600      31.72200     28.73700
   66     2     2     -0.07046      36.01500      30.53400     27.73800
   67     2     2     -0.07312      37.39500      30.34800     27.07400
   68     2     2     -0.16300      38.50900      30.33700     28.13200
   69     2     2     -0.16731      38.51900      31.62000     28.96900
   70     2     2     -0.10570      37.16800      31.92300     29.66200
   71     2     2     -0.17236      37.64100      31.32300     25.89800
   72     2     2     -0.17626      36.39100      31.57300     25.02800
   73     2     2     -0.17655      35.29800      30.51700     25.24600
   74     2     2     -0.16854      34.84600      30.46900     26.71900
   75     2     2     -0.16704      37.20000      33.77300     31.56700
   76     2     2     -0.12989      37.10200      33.41500     30.07300
   77     2     1      0.08576      36.68400      33.02800     32.17500
   78     2     1      0.08576      38.24700      33.73800     31.87000
   79     2     1      0.11757      37.90600      33.93700     29.56000
   80     2     1      0.11069      35.00800      33.66700     30.16000
   81     2     1      0.09268      34.73500      35.75300     29.63900
   82     2     1      0.08854      36.04800      37.03800     30.93900
   83     2     1      0.08431      35.57000      35.04500     32.20200
   84     2     1      0.08431      37.12100      35.63300     32.71000
   85     2     1      0.08739      38.37900      37.27300     31.09100
   86     2     1      0.08739      38.72300      35.76200     30.33500
   87     2     1      0.09409      39.20500      37.50600     28.74100
   88     2     1      0.09409      37.64400      38.25500     28.97200
   89     2     1      0.07875      38.09900      35.46400     27.77700
   90     2     1      0.07875      37.70900      36.90400     26.86900
   91     2     1      0.08678      35.63300      35.62400     27.26700
   92     2     1      0.08678      35.58100      37.15300     28.06800
   93     2     1      0.10307      36.33200      33.42300     27.44300
   94     2     1      0.10307      34.61100      33.23600     27.81000
   95     2     1      0.09120      35.10100      31.47100     29.39600
   96     2     1      0.08511      35.89800      29.65000     28.36900
   97     2     1      0.08787      37.39100      29.34800     26.63500
   98     2     1      0.08162      38.37300      29.48100     28.79400
   99     2     1      0.08162      39.47800      30.19700     27.65300
  100     2     1      0.08273      39.30600      31.56500     29.72300
  101     2     1      0.08273      38.80500      32.44100     28.31200
  102     2     1      0.11038      37.06300      31.26900     30.53000
  103     2     1      0.08044      38.00700      32.28500     26.25400
  104     2     1      0.08044      38.44300      30.92200     25.27700
  105     2     1      0.08672      35.97800      32.55300     25.26200
  106     2     1      0.08672      36.67400      31.61500     23.97600
  107     2     1      0.08563      34.44100      30.72200     24.60300
  108     2     1      0.08563      35.67400      29.54000     24.94200
  109     2     1      0.08634      34.13100      31.26800     26.90200
  110     2     1      0.08634      34.27900      29.55100     26.87700
  111     3     2     -0.17418      11.26600      40.24900     34.20700
  112     3     2     -0.12769       9.83400      39.87900     33.81900
  113     3     2     -0.07474       9.16600      38.57500     34.33100
  114     3     2     -0.09519       8.02100      38.09500     33.37300
  115     3     2     -0.17646       7.38600      39.29400     32.61500
  116     3     2     -0.17534       8.41500      36.97600     32.37300
  117     3     2     -0.18205       9.31800      35.89500     32.97700
  118     3     2     -0.17428      10.55100      36.52100     33.63600
  119     3     2     -0.16269      10.11800      37.44200     34.77900
  120     3     2     -0.11851      11.50400      41.47200     33.30300
  121     3     2     -0.07046      12.91800      42.11400     33.24200
  122     3     2     -0.07312      13.87200      41.46200     32.22100
  123     3     2     -0.16300      13.19300      41.33500     30.84800
  124     3     2     -0.16731      11.89700      40.52200     30.92000
  125     3     2     -0.10570      10.87300      41.07300     31.94200
  126     3     2     -0.17236      14.51500      40.15200     32.73800
  127     3     2     -0.17626      14.89400      40.19700     34.23300
  128     3     2     -0.17655      14.94100      41.62700     34.78900
  129     3     2     -0.16854      13.58500      42.34000     34.62500
  130     3     2     -0.16704       8.39900      40.12000     31.77200
  131     3     2     -0.12989       9.83800      39.97800     32.30200
  132     3     1      0.08576       8.09100      41.16700     31.77200
  133     3     1      0.08576       8.37400      39.79800     30.73100
  134     3     1      0.11757      10.22300      39.02600     31.94600
  135     3     1      0.11069       9.20400      40.69500     34.18400
  136     3     1      0.09268       8.67300      38.88600     35.25300
  137     3     1      0.08854       7.24900      37.66100     34.01200
  138     3     1      0.08431       6.93400      39.95600     33.35500
  139     3     1      0.08431       6.56100      38.95900     31.98500
  140     3     1      0.08739       7.50900      36.51000     31.98200
  141     3     1      0.08739       8.91200      37.39000     31.49900
  142     3     1      0.09409       9.62700      35.19500     32.19900
  143     3     1      0.09409       8.76000      35.31100     33.71100
  144     3     1      0.07875      11.13700      37.07800     32.90400
  145     3     1      0.07875      11.20400      35.73800     34.02100
  146     3     1      0.08678      10.98500      37.83700     35.30400
  147     3     1      0.08678       9.59700      36.83300     35.52000
  148     3     1      0.10307      11.95900      39.44900     33.95500
  149     3     1      0.10307      11.35600      40.46500     35.27100
  150     3     1      0.09120      10.86400      42.25600     33.71600
  151     3     1      0.08511      12.73700      43.11400     32.84200
  152     3     1      0.08787      14.69800      42.16200     32.08200
  153     3     1      0.08162      12.96900      42.33000     30.46100
  154     3     1      0.08162      13.87900      40.88100     30.13300
  155     3     1      0.08273      11.43400      40.47500     29.93400
  156     3     1      0.08273      12.16500      39.49500     31.16400
  157     3     1      0.11038      10.38600      41.95100     31.51300
  158     3     1      0.08044      13.85600      39.30000     32.57800
  159     3     1      0.08044      15.40400      39.94300     32.14200
  160     3     1      0.08672      14.16700      39.62500     34.80800
  161     3     1      0.08672      15.85200      39.69800     34.38800
  162     3     1      0.08563      15.22800      41.61400     35.84200
  163     3     1      0.08563      15.72100      42.19000     34.27300
  164     3     1      0.08634      12.91800      42.03400     35.42800
  165     3     1      0.08634      13.73400      43.40900     34.78500
  166     4     2     -0.17418      34.92300      21.03100     25.05500
  167     4     2     -0.12769      36.14500      21.76500     25.60700
  168     4     2     -0.07474      36.33100      23.29300     25.41000
  169     4     2     -0.09519      37.84200      23.70700     25.47800
  170     4     2     -0.17646      38.65200      22.72500     26.36800
  171     4     2     -0.17534      38.54500      23.89300     24.10800
  172     4     2     -0.18205      37.67700      24.59300     23.05500
  173     4     2     -0.17428      36.32700      23.88500     22.90500
  174     4     2     -0.16269      35.56300      23.93600     24.23100
  175     4     2     -0.11851      35.31600      19.56800     25.32900
  176     4     2     -0.07046      34.41800      18.42100     24.78700
  177     4     2     -0.07312      34.73300      17.99300     23.33900
  178     4     2     -0.16300      36.23800      17.73200     23.16600
  179     4     2     -0.16731      37.07900      18.96100     23.52400
  180     4     2     -0.10570      36.82100      19.49700     24.95400
  181     4     2     -0.17236      34.12300      18.94000     22.27800
  182     4     2     -0.17626      32.71500      19.45500     22.64400
  183     4     2     -0.17655      32.05000      18.62500     23.75100
  184     4     2     -0.16854      32.89900      18.61600     25.03700
  185     4     2     -0.16704      38.58400      21.24200     25.90200
  186     4     2     -0.12989      37.31900      20.95900     25.07200
  187     4     1      0.08576      38.62300      20.59200     26.77700
  188     4     1      0.08576      39.46100      20.99600     25.30300
  189     4     1      0.11757      37.49800      21.33200     24.06700
  190     4     1      0.11069      36.12600      21.60900     26.68900
  191     4     1      0.09268      35.86300      23.72400     26.29600
  192     4     1      0.08854      37.86900      24.68800     25.95800
  193     4     1      0.08431      38.25200      22.78400     27.38200
  194     4     1      0.08431      39.69100      23.04400     26.44900
  195     4     1      0.08739      39.46400      24.46200     24.25000
  196     4     1      0.08739      38.87100      22.93800     23.70300
  197     4     1      0.09409      38.19800      24.60700     22.09700
  198     4     1      0.09409      37.52100      25.63600     23.33600
  199     4     1      0.07875      36.46800      22.85000     22.59000
  200     4     1      0.07875      35.73900      24.36700     22.12400
  201     4     1      0.08678      34.57100      23.50100     24.12100
  202     4     1      0.08678      35.38300      24.98500     24.47300
  203     4     1      0.10307      34.81400      21.20200     23.98600
  204     4     1      0.10307      34.00400      21.33900     25.55200
  205     4     1      0.09120      35.26900      19.46300     26.41600
  206     4     1      0.08511      34.70200      17.55700     25.39200
  207     4     1      0.08787      34.24400      17.02800     23.19200
  208     4     1      0.08162      36.53700      16.89700     23.80100
  209     4     1      0.08162      36.44700      17.42300     22.14200
  210     4     1      0.08273      38.13900      18.72900     23.41100
  211     4     1      0.08273      36.87100      19.73200     22.78300
  212     4     1      0.11038      37.32900      18.84800     25.67000
  213     4     1      0.08044      34.76700      19.80000     22.10100
  214     4     1      0.08044      34.08200      18.41100     21.32500
  215     4     1      0.08672      32.78500      20.48900     22.98100
  216     4     1      0.08672      32.08500      19.47600     21.75400
  217     4     1      0.08563      31.05400      19.01200     23.96700
  218     4     1      0.08563      31.90400      17.60300     23.39700
  219     4     1      0.08634      32.71600      19.53200     25.59400
  220     4     1      0.08634      32.53400      17.82100     25.68800
  221     5     2     -0.17418      16.02700      34.00000     30.91700
  222     5     2     -0.12769      15.04300      33.90700     29.75100
  223     5     2     -0.07474      15.52200      33.98300     28.27700
  224     5     2     -0.09519      14.38200      34.48200     27.32200
  225     5     2     -0.17646      12.98100      34.11500     27.88300
  226     5     2     -0.17534      14.43500      35.98800     26.95200
  227     5     2     -0.18205      15.85100      36.51100     26.68200
  228     5     2     -0.17428      16.78400      36.18500     27.85200
  229     5     2     -0.16269      16.88600      34.66800     28.02800
  230     5     2     -0.11851      15.05700      34.08000     32.10900
  231     5     2     -0.07046      15.61800      34.34400     33.53500
  232     5     2     -0.07312      15.80400      35.83400     33.88200
  233     5     2     -0.16300      14.52800      36.62900     33.56600
  234     5     2     -0.16731      14.12000      36.50100     32.09500
  235     5     2     -0.10570      13.93300      35.03700     31.62700
  236     5     2     -0.17236      17.09800      36.44100     33.28700
  237     5     2     -0.17626      18.30500      35.48100     33.32300
  238     5     2     -0.17655      18.09900      34.30500     34.28700
  239     5     2     -0.16854      16.85100      33.48100     33.91300
  240     5     2     -0.16704      12.69700      34.68400     29.30300
  241     5     2     -0.12989      13.99600      34.95900     30.08200
  242     5     1      0.08576      12.06400      33.98100     29.84700
  243     5     1      0.08576      12.12700      35.61000     29.23000
  244     5     1      0.11757      14.40100      35.90100     29.71700
  245     5     1      0.11069      14.55100      32.93500     29.85000
  246     5     1      0.09268      15.69800      32.94000     28.01100
  247     5     1      0.08854      14.51400      33.94300     26.38100
  248     5     1      0.08431      12.91300      33.02700     27.92900
  249     5     1      0.08431      12.19600      34.42500     27.19200
  250     5     1      0.08739      13.81400      36.16300     26.07300
  251     5     1      0.08739      13.98700      36.59800     27.73300
  252     5     1      0.09409      15.82100      37.58900     26.51900
  253     5     1      0.09409      16.24000      36.07200     25.76200
  254     5     1      0.07875      16.42400      36.64900     28.77200
  255     5     1      0.07875      17.77400      36.60100     27.66500
  256     5     1      0.08678      17.60200      34.41800     28.80900
  257     5     1      0.08678      17.31400      34.25300     27.11400
  258     5     1      0.10307      16.62600      34.90700     30.85200
  259     5     1      0.10307      16.69800      33.14200     30.95300
  260     5     1      0.09120      14.60500      33.08700     32.17100
  261     5     1      0.08511      14.81700      34.01000     34.19800
  262     5     1      0.08787      15.92600      35.88400     34.96700
  263     5     1      0.08162      13.71200      36.27100     34.19500
  264     5     1      0.08162      14.66800      37.67900     33.82300
  265     5     1      0.08273      13.19900      37.05800     31.91600
  266     5     1      0.08273      14.88100      36.99900     31.49600
  267     5     1      0.11038      12.97600      34.66700     32.00200
  268     5     1      0.08044      16.94500      36.76100     32.25800
  269     5     1      0.08044      17.33900      37.35100     33.83800
  270     5     1      0.08672      18.48000      35.08300     32.32300
  271     5     1      0.08672      19.21000      36.03200     33.58400
  272     5     1      0.08563      18.97900      33.66100     34.29400
  273     5     1      0.08563      17.99900      34.68600     35.30500
  274     5     1      0.08634      17.10200      32.79500     33.10800
  275     5     1      0.08634      16.59700      32.83500     34.75500
  276     6     2     -0.17418      19.74700      43.83400     26.38800
  277     6     2     -0.12769      20.94900      44.61600     26.91800
  278     6     2     -0.07474      20.89200      46.15400     27.11700
  279     6     2     -0.09519      22.32000      46.80000     27.05600
  280     6     2     -0.17646      23.41100      45.79000     27.50500
  281     6     2     -0.17534      22.70500      47.43600     25.69400
  282     6     2     -0.18205      21.56200      48.20600     25.02300
  283     6     2     -0.17428      20.31200      47.32800     24.90200
  284     6     2     -0.16269      19.82800      46.91800     26.29500
  285     6     2     -0.11851      20.37300      42.44200     26.18800
  286     6     2     -0.07046      19.54200      41.32100     25.50300
  287     6     2     -0.07312      19.61500      41.32200     23.96300
  288     6     2     -0.16300      21.07600      41.38300     23.48900
  289     6     2     -0.16731      21.80500      42.61600     24.03000
  290     6     2     -0.10570      21.77000      42.73200     25.57300
  291     6     2     -0.17236      18.68800      42.37500     23.31000
  292     6     2     -0.17626      17.32700      42.52700     24.02100
  293     6     2     -0.17655      17.00900      41.34800     24.95000
  294     6     2     -0.16854      18.09100      41.17700     26.03400
  295     6     2     -0.16704      23.44500      44.47800     26.67000
  296     6     2     -0.12989      22.08700      44.18500     26.00500
  297     6     1      0.08576      23.74200      43.65200     27.31700
  298     6     1      0.08576      24.20900      44.54500     25.89500
  299     6     1      0.11757      22.01200      44.81900     25.12400
  300     6     1      0.11069      21.16700      44.20000     27.90500
  301     6     1      0.09268      20.55900      46.26600     28.15000
  302     6     1      0.08854      22.31500      47.62300     27.77400
  303     6     1      0.08431      23.21800      45.52900     28.54600
  304     6     1      0.08431      24.39600      46.25900     27.50400
  305     6     1      0.08739      23.55300      48.10700     25.83800
  306     6     1      0.08739      23.06500      46.68200     24.99800
  307     6     1      0.09409      21.87500      48.54600     24.03500
  308     6     1      0.09409      21.33100      49.10400     25.59800
  309     6     1      0.07875      20.52100      46.44300     24.29900
  310     6     1      0.07875      19.52400      47.87400     24.38400
  311     6     1      0.08678      18.89900      46.35500     26.22900
  312     6     1      0.08678      19.56600      47.82700     26.83900
  313     6     1      0.10307      19.40600      44.23800     25.43700
  314     6     1      0.10307      18.91400      43.84400     27.08900
  315     6     1      0.09120      20.55800      42.06800     27.19800
  316     6     1      0.08511      20.05000      40.40000     25.79700
  317     6     1      0.08787      19.23600      40.35100     23.63700
  318     6     1      0.08162      21.60100      40.48400     23.81700
  319     6     1      0.08162      21.11600      41.37400     22.39900
  320     6     1      0.08273      22.84300      42.61000     23.69200
  321     6     1      0.08273      21.35500      43.49400     23.57000
  322     6     1      0.11038      22.49000      42.02900     25.99600
  323     6     1      0.08044      19.16700      43.35200     23.27400
  324     6     1      0.08044      18.52700      42.09600     22.26800
  325     6     1      0.08672      17.32800      43.44400     24.61000
  326     6     1      0.08672      16.53500      42.65300     23.28100
  327     6     1      0.08563      16.03400      41.48800     25.41900
  328     6     1      0.08563      16.92900      40.43400     24.35900
  329     6     1      0.08634      17.90500      41.88200     26.84200
  330     6     1      0.08634      17.96900      40.19600     26.49300
  331     7     2     -0.17418      41.56000      45.69800     12.10900
  332     7     2     -0.12769      42.83200      46.53900     12.22800
  333     7     2     -0.07474      43.55700      46.72400     13.58700
  334     7     2     -0.09519      44.40300      48.04500     13.61900
  335     7     2     -0.17646      44.86900      48.44500     12.19200
  336     7     2     -0.17534      43.72600      49.25200     14.32000
  337     7     2     -0.18205      42.96400      48.88100     15.59800
  338     7     2     -0.17428      41.96400      47.75300     15.32700
  339     7     2     -0.16269      42.70800      46.49900     14.86000
  340     7     2     -0.11851      41.14800      46.00200     10.65700
  341     7     2     -0.07046      39.79000      45.46800     10.12100
  342     7     2     -0.07312      38.58400      46.38400     10.41300
  343     7     2     -0.16300      38.88700      47.83100      9.99200
  344     7     2     -0.16731      40.12600      48.38800     10.69900
  345     7     2     -0.10570      41.39700      47.52600     10.49700
  346     7     2     -0.17236      38.04400      46.23900     11.85600
  347     7     2     -0.17626      38.05800      44.78700     12.37900
  348     7     2     -0.17655      38.20900      43.75400     11.25400
  349     7     2     -0.16854      39.50500      43.97900     10.45200
  350     7     2     -0.16704      43.70800      48.64500     11.17700
  351     7     2     -0.12989      42.44700      47.86300     11.58500
  352     7     1      0.08576      44.04600      48.33900     10.18500
  353     7     1      0.08576      43.45600      49.70300     11.09700
  354     7     1      0.11757      41.94700      48.43300     12.36500
  355     7     1      0.11069      43.56500      46.07200     11.56500
  356     7     1      0.09268      44.28000      45.90700     13.60400
  357     7     1      0.08854      45.29400      47.82400     14.20900
  358     7     1      0.08431      45.51900      47.65200     11.81800
  359     7     1      0.08431      45.49400      49.33800     12.22600
  360     7     1      0.08739      44.48300      50.00000     14.55800
  361     7     1      0.08739      43.03900      49.76000     13.64700
  362     7     1      0.09409      42.44200      49.75700     15.98400
  363     7     1      0.09409      43.66800      48.57500     16.37400
  364     7     1      0.07875      41.23300      48.05900     14.57700
  365     7     1      0.07875      41.40100      47.53100     16.23300
  366     7     1      0.08678      42.01800      45.66700     14.73400
  367     7     1      0.08678      43.37600      46.18800     15.66500
  368     7     1      0.10307      40.79600      46.04400     12.80200
  369     7     1      0.10307      41.75200      44.64300     12.30000
  370     7     1      0.09120      41.90100      45.50500     10.04100
  371     7     1      0.08511      39.90200      45.50700      9.03500
  372     7     1      0.08787      37.77700      46.04600      9.75900
  373     7     1      0.08162      39.04300      47.87000      8.91300
  374     7     1      0.08162      38.02500      48.46700     10.19500
  375     7     1      0.08273      40.32200      49.40500     10.35700
  376     7     1      0.08273      39.89000      48.47800     11.75800
  377     7     1      0.11038      41.79300      47.71100      9.49700
  378     7     1      0.08044      38.60700      46.85900     12.55100
  379     7     1      0.08044      37.02500      46.62700     11.88600
  380     7     1      0.08672      38.88500      44.66300     13.07800
  381     7     1      0.08672      37.15300      44.59200     12.95600
  382     7     1      0.08563      38.19900      42.74300     11.66500
  383     7     1      0.08563      37.34600      43.81600     10.58900
  384     7     1      0.08634      40.34200      43.53800     10.98900
  385     7     1      0.08634      39.44200      43.40800      9.52500
  386     8     2     -0.17418      20.02800      18.52900     15.64600
  387     8     2     -0.12769      18.97100      18.96900     16.66000
  388     8     2     -0.07474      18.42200      20.42000     16.68100
  389     8     2     -0.09519      17.87000      20.81100     18.09600
  390     8     2     -0.17646      17.36900      19.55900     18.86700
  391     8     2     -0.17534      18.83800      21.63600     18.98400
  392     8     2     -0.18205      19.61800      22.71100     18.21800
  393     8     2     -0.17428      20.34000      22.10400     17.01100
  394     8     2     -0.16269      19.31700      21.50700     16.04100
  395     8     2     -0.11851      20.36300      17.12100     16.17100
  396     8     2     -0.07046      21.53100      16.32300     15.52600
  397     8     2     -0.07312      22.92000      16.62700     16.12500
  398     8     2     -0.16300      22.88200      16.53200     17.65800
  399     8     2     -0.16731      21.84900      17.48500     18.26800
  400     8     2     -0.10570      20.41700      17.28800     17.71400
  401     8     2     -0.17236      23.54500      17.93400     15.58200
  402     8     2     -0.17626      23.28100      18.16800     14.07900
  403     8     2     -0.17655      22.82300      16.89600     13.35200
  404     8     2     -0.16854      21.53400      16.32500     13.97400
  405     8     2     -0.16704      18.45200      18.45900     19.06400