LAMMPS data file of the system for full atom style

    4864 atoms
    4832 bonds
    9600 angles
   14112 dihedrals
    3200 impropers

    2 atom types
    2 bond types
    3 angle types
    2 dihedral types
    1 improper types

    0.000000    50.000000 xlo xhi
    0.000000    50.000000 ylo yhi
    0.000000    50.000000 zlo zhi

 Masses 

    1       1.0080
    2      12.0110

 Pair Coeffs 

    1       0.0300       2.5000
    2       0.0660       3.5000

 Bond Coeffs 

    1     268.0000        1.5290
    2     340.0000        1.0900

 Angle Coeffs 

    1      33.0000      107.8000
    2      37.5000      110.7000
    3      58.3500      112.7000

 Dihedral Coeffs 

    1       0.0000        0.0000       0.3000        0.0000
    2       1.3000       -0.2000       0.2000        0.0000

 Improper Coeffs 

    1       0.0000     -1     2

 Atoms 

    1     1     2     -0.23880       5.15400       1.18800     17.37700
    2     1     2     -0.17960       6.14600       2.07300     16.64500
    3     1     2     -0.17930       7.24600       2.55200     17.58500
    4     1     2     -0.17990       8.24300       3.44300     16.85300
    5     1     2     -0.18020       9.33500       3.91500     17.80600
    6     1     2     -0.18080      10.33400       4.80300     17.08100
    7     1     2     -0.18010      11.42100       5.26700     18.04000
    8     1     2     -0.18070      12.41200       6.15500     17.30200
    9     1     2     -0.18010      13.50800       6.63400     18.24100
   10     1     2     -0.18130      14.48000       7.51500     17.47500
   11     1     2     -0.18090      15.58500       8.01000     18.38600
   12     1     2     -0.17990      16.55100       8.88900     17.60300
   13     1     2     -0.18190      17.65000       9.37400     18.52800
   14     1     2     -0.17990      18.64700      10.25700     17.79600
   15     1     2     -0.18260      19.74800      10.64800     18.77200
   16     1     2     -0.17600      20.78800      11.53800     18.11100
   17     1     2     -0.10910      21.85100      12.05700     19.10300
   18     1     2     -0.17170      22.66700      10.90200     19.72700
   19     1     2     -0.17530      23.67500      11.32400     20.80900
   20     1     2     -0.17560      23.05500      12.06300     21.99600
   21     1     2     -0.18140      22.01900      11.20200     22.70500
   22     1     2     -0.18090      21.40100      11.93000     23.88600
   23     1     2     -0.18100      20.37900      11.02400     24.55600
   24     1     2     -0.18120      19.75100      11.73600     25.73800
   25     1     2     -0.18010      18.72900      10.84300     26.41700
   26     1     2     -0.18140      18.11900      11.58100     27.59500
   27     1     2     -0.18020      17.09200      10.71300     28.29800
   28     1     2     -0.18070      16.49600      11.47000     29.47400
   29     1     2     -0.18030      15.46800      10.60900     30.18900
   30     1     2     -0.18000      14.86800      11.36300     31.36800
   31     1     2     -0.17940      13.83900      10.49700     32.08300
   32     1     2     -0.17970      13.23200      11.23800     33.26800
   33     1     2     -0.23890      12.20800      10.37200     33.97900
   34     1     2     -0.17690      22.80800      13.03500     18.40600
   35     1     2     -0.18230      22.10900      14.26800     17.85900
   36     1     2     -0.18210      23.12200      15.17600     17.18600
   37     1     2     -0.18160      22.40700      16.39900     16.64500
   38     1     2     -0.18100      23.39800      17.32200     15.96700
   39     1     2     -0.18140      22.67000      18.54100     15.43400
   40     1     2     -0.18110      23.65600      19.47100     14.75500
   41     1     2     -0.18080      22.93000      20.69300     14.22000
   42     1     2     -0.18090      23.91900      21.62100     13.53900
   43     1     2     -0.18040      23.20300      22.84900     13.00300
   44     1     2     -0.18050      24.19700      23.77600     12.32300
   45     1     2     -0.18010      23.48800      25.00700     11.78200
   46     1     2     -0.18010      24.48400      25.93400     11.10000
   47     1     2     -0.17980      23.77900      27.16900     10.55400
   48     1     2     -0.17910      24.77900      28.09600      9.87300
   49     1     2     -0.17950      24.08500      29.33800      9.32300
   50     1     2     -0.23880      25.08300      30.26200      8.64700
   51     1     1      0.08080       4.37000       0.85000     16.69200
   52     1     1      0.08080       4.68000       1.73300     18.20000
   53     1     1      0.08080       5.65200       0.30500     17.78900
   54     1     1      0.08860       5.61900       2.93500     16.22000
   55     1     1      0.08860       6.58700       1.51400     15.81200
   56     1     1      0.08960       7.77100       1.68900     18.01200
   57     1     1      0.08960       6.80300       3.10800     18.42000
   58     1     1      0.08970       7.72500       4.31100     16.42800
   59     1     1      0.08970       8.69500       2.89000     16.02000
   60     1     1      0.08970       9.85400       3.04800     18.23400
   61     1     1      0.08970       8.88500       4.46900     18.63900
   62     1     1      0.09010       9.81800       5.67300     16.65500
   63     1     1      0.09010      10.78700       4.25100     16.24600
   64     1     1      0.09070      11.93200       4.39500     18.46700
   65     1     1      0.09070      10.97000       5.82800     18.87200
   66     1     1      0.09000      11.89000       7.01800     16.87400
   67     1     1      0.09000      12.85900       5.59800     16.47000
   68     1     1      0.09070      14.03800       5.77400     18.67000
   69     1     1      0.09070      13.06900       7.19600     19.07500
   70     1     1      0.09010      13.94400       8.37100     17.04500
   71     1     1      0.09010      14.91400       6.94900     16.64100
   72     1     1      0.09040      16.12400       7.15700     18.81800
   73     1     1      0.09040      15.15500       8.57800     19.22100
   74     1     1      0.09090      16.01500       9.74300     17.17300
   75     1     1      0.09090      16.98300       8.31900     16.77300
   76     1     1      0.08960      18.17100       8.51000     18.95700
   77     1     1      0.08960      17.20800       9.93300     19.36300
   78     1     1      0.09100      18.14300      11.15100     17.40500
   79     1     1      0.09100      19.07500       9.72000     16.94100
   80     1     1      0.09000      20.21400       9.73200     19.14800
   81     1     1      0.09000      19.30900      11.17200     19.63000
   82     1     1      0.09020      20.24400      12.37900     17.66900
   83     1     1      0.09020      21.27400      11.00500     17.28300
   84     1     1      0.10110      21.31800      12.59400     19.89700
   85     1     1      0.08810      23.21200      10.37700     18.93200
   86     1     1      0.08810      21.99600      10.15700     20.16400
   87     1     1      0.08620      24.46600      11.94200     20.37500
   88     1     1      0.08620      24.17500      10.41900     21.17800
   89     1     1      0.08910      22.60500      13.00800     21.67100
   90     1     1      0.08910      23.85300      12.33000     22.70000
   91     1     1      0.09080      22.49000      10.27300     23.04800
   92     1     1      0.09080      21.21400      10.92500     22.01700
   93     1     1      0.09030      20.91400      12.85100     23.54300
   94     1     1      0.09030      22.17900      12.21600     24.60400
   95     1     1      0.09020      20.86400      10.09800     24.89100
   96     1     1      0.09020      19.60100      10.74000     23.83600
   97     1     1      0.09020      19.26600      12.66000     25.39700
   98     1     1      0.09020      20.53000      12.02100     26.45400
   99     1     1      0.09070      19.20800       9.92000     26.76300
  100     1     1      0.09070      17.94500      10.55700     25.70400
  101     1     1      0.09000      17.64400      12.50600     27.24400
  102     1     1      0.09000      18.90900      11.86900     28.29900
  103     1     1      0.09050      17.56600       9.78800     28.65100
  104     1     1      0.09050      16.30100      10.42800     27.59500
  105     1     1      0.09010      16.02600      12.39600     29.11700
  106     1     1      0.09010      17.29300      11.75800     30.17100
  107     1     1      0.09000      15.94100       9.68400     30.53900
  108     1     1      0.09000      14.67500      10.32400     29.48700
  109     1     1      0.08990      14.39700      12.28900     31.01200
  110     1     1      0.08990      15.66500      11.64900     32.06500
  111     1     1      0.08970      14.31700       9.57200     32.42800
  112     1     1      0.08970      13.04800      10.21000     31.37800
  113     1     1      0.08870      12.75200      12.16100     32.92200
  114     1     1      0.08870      14.02200      11.52400     33.97300
  115     1     1      0.08070      11.39600      10.09400     33.30000
  116     1     1      0.08070      11.77700      10.91400     34.82500
  117     1     1      0.08070      12.67100       9.45400     34.35600
  118     1     1      0.09020      23.33300      12.51400     17.59500
  119     1     1      0.09020      23.57200      13.38100     19.10800
  120     1     1      0.09100      21.60400      14.80100     18.67300
  121     1     1      0.09100      21.35100      13.99800     17.11900
  122     1     1      0.09070      23.61600      14.64000     16.36700
  123     1     1      0.09070      23.89900      15.47400     17.90100
  124     1     1      0.09050      21.90100      16.92500     17.46400
  125     1     1      0.09050      21.63600      16.09300     15.92900
  126     1     1      0.09090      23.90000      16.79600     15.14600
  127     1     1      0.09090      24.17200      17.63200     16.68100
  128     1     1      0.09060      22.16700      19.06400     16.25600
  129     1     1      0.09060      21.89500      18.23100     14.72200
  130     1     1      0.09050      24.15700      18.94400     13.93300
  131     1     1      0.09050      24.43100      19.77800     15.46700
  132     1     1      0.09050      22.42900      21.21800     15.04400
  133     1     1      0.09050      22.15400      20.38400     13.50900
  134     1     1      0.09020      24.42000      21.09200     12.72000
  135     1     1      0.09020      24.69400      21.92400     14.25400
  136     1     1      0.09030      22.70200      23.37500     13.82500
  137     1     1      0.09030      22.42800      22.54200     12.28900
  138     1     1      0.09010      24.69900      23.24400     11.50600
  139     1     1      0.09010      24.97200      24.07700     13.04000
  140     1     1      0.09010      22.98600      25.53500     12.60200
  141     1     1      0.09010      22.71200      24.70200     11.06800
  142     1     1      0.08990      24.98400      25.39800     10.28400
  143     1     1      0.08990      25.25800      26.23300     11.81800
  144     1     1      0.08970      23.27600      27.69800     11.37300
  145     1     1      0.08970      23.00600      26.86500      9.83700
  146     1     1      0.08960      25.28100      27.56000      9.05800
  147     1     1      0.08960      25.55300      28.39200     10.59100
  148     1     1      0.08850      23.58400      29.87500     10.13700
  149     1     1      0.08850      23.31400      29.04400      8.60100
  150     1     1      0.08070      25.85200      30.59100      9.35300
  151     1     1      0.08070      24.57300      31.14900      8.25900
  152     1     1      0.08070      25.57800      29.75700      7.81100
  153     2     2     -0.23880      21.36600       8.91000     41.12100
  154     2     2     -0.17960      22.09200      10.24200     41.18800
  155     2     2     -0.17930      23.39200      10.19400     40.39300
  156     2     2     -0.17990      24.12400      11.52900     40.46000
  157     2     2     -0.18020      25.42100      11.46600     39.66200
  158     2     2     -0.18080      26.15500      12.79500     39.72400
  159     2     2     -0.18010      27.44800      12.72300     38.92300
  160     2     2     -0.18070      28.17200      14.05800     38.99400
  161     2     2     -0.18010      29.46900      14.01000     38.20200
  162     2     2     -0.18130      30.16700      15.35700     38.29200
  163     2     2     -0.18090      31.46700      15.33900     37.51200
  164     2     2     -0.17990      32.15100      16.69500     37.61100
  165     2     2     -0.18190      33.44700      16.66100     36.82500
  166     2     2     -0.17990      34.17400      17.99400     36.88800
  167     2     2     -0.18260      35.42500      17.89900     36.02500
  168     2     2     -0.17600      36.21000      19.20100     36.03800
  169     2     2     -0.10910      37.55100      19.10000     35.27800
  170     2     2     -0.17170      37.33800      18.78900     33.77900
  171     2     2     -0.17530      38.62500      18.56400     32.96900
  172     2     2     -0.17560      39.51100      17.43200     33.49200
  173     2     2     -0.18140      38.77300      16.10000     33.47800
  174     2     2     -0.18090      39.64700      14.97100     33.99500
  175     2     2     -0.18100      38.86200      13.66800     33.95600
  176     2     2     -0.18120      39.72100      12.53000     34.47100
  177     2     2     -0.18010      38.94900      11.22300     34.43600
  178     2     2     -0.18140      39.83400      10.10300     34.95500
  179     2     2     -0.18020      39.09100       8.78000     34.93100
  180     2     2     -0.18070      39.99500       7.67300     35.45200
  181     2     2     -0.18030      39.26300       6.34200     35.43200
  182     2     2     -0.18000      40.16500       5.23000     35.95200
  183     2     2     -0.17940      39.42800       3.89600     35.92800
  184     2     2     -0.17970      40.31900       2.77300     36.44400
  185     2     2     -0.23890      39.58400       1.44600     36.41800
  186     2     2     -0.17690      38.34900      20.40500     35.41600
  187     2     2     -0.18230      38.70800      20.73600     36.85600
  188     2     2     -0.18210      39.49000      22.03500     36.90300
  189     2     2     -0.18160      39.83900      22.35100     38.34400
  190     2     2     -0.18100      40.62000      23.64600     38.41900
  191     2     2     -0.18140      40.96300      23.94700     39.86500
  192     2     2     -0.18110      41.74600      25.24200     39.94800
  193     2     2     -0.18080      42.09300      25.54600     41.39400
  194     2     2     -0.18090      42.87500      26.84400     41.47400
  195     2     2     -0.18040      43.22800      27.15500     42.91800
  196     2     2     -0.18050      44.01300      28.45500     42.99300
  197     2     2     -0.18010      44.37000      28.77600     44.43600
  198     2     2     -0.18010      45.15300      30.07700     44.51000
  199     2     2     -0.17980      45.51200      30.40500     45.95300
  200     2     2     -0.17910      46.29900      31.70900     46.02500
  201     2     2     -0.17950      46.66600      32.04800     47.46600
  202     2     2     -0.23880      47.45200      33.34500     47.53500
  203     2     1      0.08080      20.43500       8.95700     41.69400
  204     2     1      0.08080      21.98500       8.10800     41.53500
  205     2     1      0.08080      21.11800       8.65500     40.08600
  206     2     1      0.08860      22.30600      10.48600     42.23500
  207     2     1      0.08860      21.44300      11.03100     40.79300
  208     2     1      0.08960      23.17700       9.94700     39.34600
  209     2     1      0.08960      24.03800       9.40100     40.78800
  210     2     1      0.08970      24.34600      11.78100     41.50400
  211     2     1      0.08970      23.48400      12.32600     40.06000
  212     2     1      0.08970      25.20200      11.21300     38.61700
  213     2     1      0.08970      26.06200      10.67000     40.06100
  214     2     1      0.09010      26.38000      13.04900     40.76800
  215     2     1      0.09010      25.51600      13.59400     39.32300
  216     2     1      0.09070      27.22000      12.46500     37.88100
  217     2     1      0.09070      28.09400      11.92900     39.32800
  218     2     1      0.09000      28.38800      14.30900     40.03900
  219     2     1      0.09000      27.52800      14.85000     38.59500
  220     2     1      0.09070      29.26100      13.76500     37.15300
  221     2     1      0.09070      30.12200      13.22200     38.59800
  222     2     1      0.09010      30.37000      15.59900     39.34300
  223     2     1      0.09010      29.50900      16.14100     37.89700
  224     2     1      0.09040      31.26700      15.09700     36.46100
  225     2     1      0.09040      32.12800      14.55600     37.90600
  226     2     1      0.09090      32.35200      16.93700     38.66100
  227     2     1      0.09090      31.49200      17.47500     37.21300
  228     2     1      0.08960      33.23100      16.40900     35.78000
  229     2     1      0.08960      34.09700      15.87000     37.22100
  230     2     1      0.09100      34.43800      18.23100     37.92600
  231     2     1      0.09100      33.52400      18.79900     36.52100
  232     2     1      0.09000      35.12000      17.64800     35.00500
  233     2     1      0.09000      36.06100      17.08300     36.39000
  234     2     1      0.09020      36.39300      19.44500     37.09000
  235     2     1      0.09020      35.60300      20.01600     35.62500
  236     2     1      0.10110      38.12400      18.28600     35.73900
  237     2     1      0.08810      36.77800      19.61100     33.31700
  238     2     1      0.08810      36.70800      17.90200     33.66200
  239     2     1      0.08620      39.21400      19.48500     32.92100
  240     2     1      0.08620      38.34000      18.33900     31.93300
  241     2     1      0.08910      39.87000      17.65600     34.50300
  242     2     1      0.08910      40.40300      17.36100     32.85800
  243     2     1      0.09080      38.44500      15.87600     32.45700
  244     2     1      0.09080      37.87700      16.15100     34.10600
  245     2     1      0.09030      39.96400      15.18500     35.02400
  246     2     1      0.09030      40.55300      14.88300     33.38300
  247     2     1      0.09020      38.53800      13.45900     32.92900
  248     2     1      0.09020      37.95700      13.75800     34.57000
  249     2     1      0.09020      40.04100      12.74400     35.49800
  250     2     1      0.09020      40.62600      12.44300     33.85700
  251     2     1      0.09070      38.63000      11.00300     33.41200
  252     2     1      0.09070      38.04400      11.30400     35.05200
  253     2     1      0.09000      40.15400      10.33100     35.97900
  254     2     1      0.09000      40.74000      10.03300     34.33900
  255     2     1      0.09050      38.77200       8.55000     33.90700
  256     2     1      0.09050      38.18800       8.84900     35.54900
  257     2     1      0.09010      40.31600       7.90900     36.47600
  258     2     1      0.09010      40.89900       7.61300     34.83400
  259     2     1      0.09000      38.94200       6.11400     34.40800
  260     2     1      0.09000      38.36000       6.40900     36.05000
  261     2     1      0.08990      40.48400       5.46300     36.97500
  262     2     1      0.08990      41.06800       5.16900     35.33200
  263     2     1      0.08970      39.10600       3.67500     34.90300
  264     2     1      0.08970      38.52300       3.96600     36.54500
  265     2     1      0.08870      40.63900       2.99300     37.46900
  266     2     1      0.08870      41.22300       2.70200     35.82700
  267     2     1      0.08070      38.68900       1.48500     37.04700
  268     2     1      0.08070      40.23100       0.64700     36.79200
  269     2     1      0.08070      39.27700       1.19200     35.39800
  270     2     1      0.09020      37.77500      21.23100     34.97700
  271     2     1      0.09020      39.28600      20.33500     34.85600
  272     2     1      0.09100      39.30100      19.92100     37.28700
  273     2     1      0.09100      37.81200      20.85600     37.47000
  274     2     1      0.09070      38.88800      22.84800     36.47800
  275     2     1      0.09070      40.40300      21.95200     36.30000
  276     2     1      0.09050      40.42800      21.53000     38.77100
  277     2     1      0.09050      38.92100      22.43600     38.93900
  278     2     1      0.09090      40.02700      24.46600     37.99500
  279     2     1      0.09090      41.53900      23.56400     37.82500
  280     2     1      0.09060      41.55300      23.12400     40.28700
  281     2     1      0.09060      40.04300      24.02700     40.45800
  282     2     1      0.09050      41.15300      26.06300     39.52400
  283     2     1      0.09050      42.66400      25.16200     39.35200
  284     2     1      0.09050      42.68500      24.72400     41.81500
  285     2     1      0.09050      41.17300      25.62400     41.98900
  286     2     1      0.09020      42.28000      27.66200     41.04900
  287     2     1      0.09020      43.79000      26.76100     40.87500
  288     2     1      0.09030      43.82100      26.33500     43.34000
  289     2     1      0.09030      42.31000      27.23700     43.51400
  290     2     1      0.09010      43.41800      29.27100     42.56500
  291     2     1      0.09010      44.92800      28.37000     42.39300
  292     2     1      0.09010      44.96300      27.95600     44.86000
  293     2     1      0.09010      43.45200      28.85700     45.03300
  294     2     1      0.08990      44.55600      30.89100     44.08000
  295     2     1      0.08990      46.06700      29.99100     43.90800
  296     2     1      0.08970      46.10500      29.58700     46.38000
  297     2     1      0.08970      44.59600      30.49100     46.55100
  298     2     1      0.08960      45.70300      32.52200     45.59300
  299     2     1      0.08960      47.21100      31.62100     45.42200
  300     2     1      0.08850      47.26300      31.23600     47.89800
  301     2     1      0.08850      45.75500      32.14000     48.06900
  302     2     1      0.08070      48.38100      33.27100     46.96000
  303     2     1      0.08070      47.71000      33.57500     48.57300
  304     2     1      0.08070      46.86500      34.17800     47.13400
  305     3     2     -0.23880      10.64600      17.86200      0.67800
  306     3     2     -0.17960      12.04400      18.39700      0.93000
  307     3     2     -0.17930      12.93300      17.32500      1.55200
  308     3     2     -0.17990      14.33700      17.86000      1.80800
  309     3     2     -0.18020      15.21300      16.77900      2.43100
  310     3     2     -0.18080      16.61600      17.30600      2.68800
  311     3     2     -0.18010      17.48300      16.21900      3.30800
  312     3     2     -0.18070      18.88300      16.75900      3.55900
  313     3     2     -0.18010      19.76800      15.69100      4.18100
  314     3     2     -0.18130      21.15600      16.26200      4.41900
  315     3     2     -0.18090      22.06400      15.21900      5.04100
  316     3     2     -0.17990      23.44900      15.80500      5.27100
  317     3     2     -0.18190      24.34400      14.74900      5.89100
  318     3     2     -0.17990      25.74500      15.28200      6.14100
  319     3     2     -0.18260      26.59500      14.14900      6.70100
  320     3     2     -0.17600      28.01800      14.60600      6.97900
  321     3     2     -0.10910      28.87300      13.51900      7.66700
  322     3     2     -0.17170      29.03400      12.26700      6.77600
  323     3     2     -0.17530      29.78100      11.09200      7.42900
  324     3     2     -0.17560      29.14800      10.58300      8.72500
  325     3     2     -0.18140      27.72500      10.09300      8.49300
  326     3     2     -0.18090      27.09200       9.58600      9.77500
  327     3     2     -0.18100      25.67700       9.10800      9.48300
  328     3     2     -0.18120      25.02900       8.59800     10.75600
  329     3     2     -0.18010      23.61600       8.11700     10.47800
  330     3     2     -0.18140      22.99400       7.61300     11.76800
  331     3     2     -0.18020      21.57900       7.12100     11.52400
  332     3     2     -0.18070      20.97700       6.61900     12.82600
  333     3     2     -0.18030      19.56000       6.12200     12.59400
  334     3     2     -0.18000      18.95200       5.61700     13.89700
  335     3     2     -0.17940      17.53200       5.11800     13.66000
  336     3     2     -0.17970      16.91200       4.60700     14.95500
  337     3     2     -0.23890      15.49800       4.11000     14.71600
  338     3     2     -0.17690      30.26100      14.07000      8.02200
  339     3     2     -0.18230      30.21100      15.23800      8.99300
  340     3     2     -0.18210      31.61900      15.72200      9.28800
  341     3     2     -0.18160      31.54900      16.88700     10.25500
  342     3     2     -0.18100      32.94400      17.39000     10.56500
  343     3     2     -0.18140      32.85900      18.55200     11.53500
  344     3     2     -0.18110      34.25100      19.06000     11.85100
  345     3     2     -0.18080      34.17000      20.22400     12.82200
  346     3     2     -0.18090      35.56500      20.73100     13.13500
  347     3     2     -0.18040      35.49400      21.89500     14.10900
  348     3     2     -0.18050      36.89400      22.39800     14.42100
  349     3     2     -0.18010      36.83200      23.56500     15.39400
  350     3     2     -0.18010      38.23300      24.07000     15.70500
  351     3     2     -0.17980      38.17800      25.24000     16.67800
  352     3     2     -0.17910      39.58400      25.74300     16.98800
  353     3     2     -0.17950      39.54200      26.91500     17.96400
  354     3     2     -0.23880      40.94200      27.41200     18.27400
  355     3     1      0.08080      10.01900      18.63900      0.23100
  356     3     1      0.08080      10.17900      17.53800      1.61300
  357     3     1      0.08080      10.67500      17.00900     -0.00700
  358     3     1      0.08860      11.98600      19.26500      1.59700
  359     3     1      0.08860      12.48000      18.73800     -0.01600
  360     3     1      0.08960      12.98900      16.45600      0.88500
  361     3     1      0.08960      12.49400      16.98200      2.49600
  362     3     1      0.08970      14.29000      18.72700      2.47900
  363     3     1      0.08970      14.78500      18.19900      0.86500
  364     3     1      0.08970      15.26100      15.91000      1.76300
  365     3     1      0.08970      14.76700      16.44000      3.37500
  366     3     1      0.09010      16.57200      18.17300      3.35900
  367     3     1      0.09010      17.06600      17.64500      1.74400
  368     3     1      0.09070      17.52200      15.35200      2.63600
  369     3     1      0.09070      17.03900      15.88400      4.25700
  370     3     1      0.09000      18.83100      17.62900      4.22600
  371     3     1      0.09000      19.32400      17.09800      2.61500
  372     3     1      0.09070      19.82900      14.82000      3.51800
  373     3     1      0.09070      19.33500      15.35000      5.13000
  374     3     1      0.09010      21.09000      17.13500      5.08000
  375     3     1      0.09010      21.58400      16.60400      3.46800
  376     3     1      0.09040      22.13300      14.34400      4.38200
  377     3     1      0.09040      21.64000      14.87500      5.99400
  378     3     1      0.09090      23.38200      16.67800      5.93000
  379     3     1      0.09090      23.87300      16.14300      4.31800
  380     3     1      0.08960      24.39500      13.87900      5.22500
  381     3     1      0.08960      23.90700      14.40700      6.83800
  382     3     1      0.09100      25.71000      16.12200      6.84600
  383     3     1      0.09100      26.18300      15.65400      5.20600
  384     3     1      0.09000      26.59300      13.32800      5.97700
  385     3     1      0.09000      26.14200      13.77400      7.62700
  386     3     1      0.09020      27.94300      15.48700      7.62400
  387     3     1      0.09020      28.50100      14.93300      6.05000
  388     3     1      0.10110      28.35700      13.24000      8.59400
  389     3     1      0.08810      29.56300      12.54500      5.85600
  390     3     1      0.08810      28.05400      11.90400      6.45200
  391     3     1      0.08620      30.82400      11.36000      7.62100
  392     3     1      0.08620      29.81500      10.26700      6.70500
  393     3     1      0.08910      29.16000      11.36400      9.49400
  394     3     1      0.08910      29.75900       9.76000      9.11500
  395     3     1      0.09080      27.73300       9.29400      7.74200
  396     3     1      0.09080      27.10000      10.90300      8.10100
  397     3     1      0.09030      27.06700      10.38800     10.52300
  398     3     1      0.09030      27.68800       8.76500     10.19300
  399     3     1      0.09020      25.70100       8.31100      8.72900
  400     3     1      0.09020      25.08200       9.93100      9.06700
  401     3     1      0.09020      25.00600       9.39900     11.50600
  402     3     1      0.09020      25.62600       7.77800     11.17100
  403     3     1      0.09070      23.63300       7.31500      9.73200
  404     3     1      0.09070      23.01400       8.93700     10.06400