LAMMPS data file of the system for full atom style

    4968 atoms
    4968 bonds
    9108 angles
   12834 dihedrals
     828 impropers

    4 atom types
    5 bond types
    8 angle types
    6 dihedral types
    1 improper types

    0.000000    50.000000 xlo xhi
    0.000000    50.000000 ylo yhi
    0.000000    50.000000 zlo zhi

 Masses 

    1       1.0080
    2       1.0080
    3      12.0110
    4      12.0110

 Pair Coeffs 

    1       0.0300       2.4200
    2       0.0300       2.5000
    3       0.0660       3.5000
    4       0.0700       3.5500

 Bond Coeffs 

    1     268.0000        1.5290
    2     317.0000        1.5100
    3     340.0000        1.0900
    4     367.0000        1.0800
    5     469.0000        1.4000

 Angle Coeffs 

    1      33.0000      107.8000
    2      35.0000      109.5000
    3      35.0000      120.0000
    4      37.5000      110.7000
    5      58.3500      112.7000
    6      63.0000      114.0000
    7      63.0000      120.0000
    8      70.0000      120.0000

 Dihedral Coeffs 

    1      -0.2500        0.0000       0.0000        0.0000
    2       0.0000        0.0000       0.0000        0.0000
    3       0.0000        0.0000       0.3000        0.0000
    4       0.0000        0.0000       0.4620        0.0000
    5       0.0000        7.2500       0.0000        0.0000
    6       0.8500       -0.2000       0.2000        0.0000

 Improper Coeffs 

    1       2.5000     -1     2

 Atoms 

    1     1     3     -0.19193      40.37400      32.88900     45.96000
    2     1     3     -0.17213      40.37600      32.35300     44.51600
    3     1     3     -0.18371      39.90300      31.86100     47.00200
    4     1     3     -0.19147      38.41300      31.50400     46.89100
    5     1     3     -0.18727      37.95400      30.56200     48.01300
    6     1     3     -0.19406      36.46500      30.20200     47.90000
    7     1     3     -0.24059      36.00400      29.26200     49.01900
    8     1     3     -0.14028      40.89700      33.37400     43.49100
    9     1     4     -0.07366      42.36200      33.73500     43.65200
   10     1     4     -0.13562      43.36100      32.83200     43.23300
   11     1     4     -0.13385      44.72100      33.16100     43.38600
   12     1     4     -0.13756      45.08900      34.39500     43.95800
   13     1     4     -0.13385      44.09300      35.29800     44.37900
   14     1     4     -0.13562      42.73200      34.96900     44.22600
   15     1     1      0.13186      46.13300      34.64700     44.07600
   16     1     1      0.13850      44.37400      36.24400     44.82000
   17     1     1      0.13490      41.97500      35.66500     44.55600
   18     1     1      0.13490      43.08500      31.88300     42.79700
   19     1     1      0.13850      45.48400      32.46600     43.06500
   20     1     2      0.09813      40.76100      32.97500     42.48500
   21     1     2      0.09813      40.29200      34.28100     43.52700
   22     1     2      0.09485      39.36300      32.06800     44.23100
   23     1     2      0.09485      40.97500      31.44400     44.46000
   24     1     2      0.09534      39.76300      33.79000     46.02500
   25     1     2      0.09534      41.38800      33.19900     46.22000
   26     1     2      0.09300      40.51200      30.95900     46.92900
   27     1     2      0.09300      40.09600      32.27000     47.99500
   28     1     2      0.09267      37.81600      32.41700     46.91600
   29     1     2      0.09267      38.21400      31.03300     45.92800
   30     1     2      0.09975      38.55300      29.65100     47.99100
   31     1     2      0.09975      38.14200      31.03000     48.98100
   32     1     2      0.08833      35.86200      31.11100     47.92200
   33     1     2      0.08833      36.27300      29.73100     46.93400
   34     1     2      0.08293      34.94500      29.02100     48.91400
   35     1     2      0.08293      36.14300      29.71600     50.00200
   36     1     2      0.08293      36.55700      28.32300     49.00300
   37     2     3     -0.19193      42.72300      43.98100     33.92500
   38     2     3     -0.17213      42.83900      43.96700     32.39000
   39     2     3     -0.18371      41.31800      43.63500     34.44400
   40     2     3     -0.19147      40.26000      44.70300     34.12700
   41     2     3     -0.18727      38.89700      44.37800     34.75400
   42     2     3     -0.19406      37.83800      45.44400     34.43400
   43     2     3     -0.24059      36.47600      45.12200     35.05900
   44     2     3     -0.14028      44.26100      44.26400     31.88600
   45     2     4     -0.07366      45.29000      43.21000     32.24900
   46     2     4     -0.13562      45.31900      41.98400     31.55300
   47     2     4     -0.13385      46.26900      41.00100     31.89100
   48     2     4     -0.13756      47.19300      41.23900     32.92600
   49     2     4     -0.13385      47.16600      42.46200     33.62500
   50     2     4     -0.13562      46.21600      43.44600     33.28700
   51     2     1      0.13186      47.92200      40.48500     33.18600
   52     2     1      0.13850      47.87300      42.64600     34.42100
   53     2     1      0.13490      46.19700      44.37900     33.83100
   54     2     1      0.13490      44.61100      41.79400     30.76000
   55     2     1      0.13850      46.28800      40.06200     31.35600
   56     2     2      0.09813      44.24600      44.35400     30.79900
   57     2     2      0.09813      44.59100      45.23700     32.25300
   58     2     2      0.09485      42.16300      44.70900     31.96600
   59     2     2      0.09485      42.51100      43.00200     32.00400
   60     2     2      0.09534      43.03500      44.95100     34.31600
   61     2     2      0.09534      43.42700      43.25500     34.33700
   62     2     2      0.09300      41.00600      42.66800     34.04500
   63     2     2      0.09300      41.37600      43.50500     35.52600
   64     2     2      0.09267      40.60200      45.67500     34.48700
   65     2     2      0.09267      40.14000      44.80000     33.04700
   66     2     2      0.09975      38.55500      43.40500     34.39800
   67     2     2      0.09975      39.00600      44.28800     35.83600
   68     2     2      0.08833      38.17500      46.41900     34.78900
   69     2     2      0.08833      37.72300      45.53500     33.35200
   70     2     2      0.08293      35.74300      45.89200     34.81500
   71     2     2      0.08293      36.54200      45.06200     36.14600
   72     2     2      0.08293      36.08600      44.17100     34.69500
   73     3     3     -0.19193       5.27000      16.95700     17.37800
   74     3     3     -0.17213       6.37200      17.30600     16.36000
   75     3     3     -0.18371       4.43200      15.72900     16.98600
   76     3     3     -0.19147       3.54000      15.95300     15.75500
   77     3     3     -0.18727       2.63800      14.74600     15.46100
   78     3     3     -0.19406       1.74900      14.96900     14.22900
   79     3     3     -0.24059       0.84700      13.76500     13.93300
   80     3     3     -0.14028       7.23500      18.50500     16.78700
   81     3     4     -0.07366       8.07400      18.26500     18.02800
   82     3     4     -0.13562       9.24000      17.47500     17.95000
   83     3     4     -0.13385      10.01800      17.24600     19.10100
   84     3     4     -0.13756       9.63300      17.80300     20.33500
   85     3     4     -0.13385       8.46700      18.59000     20.41800
   86     3     4     -0.13562       7.68900      18.82100     19.26700
   87     3     1      0.13186      10.23000      17.62700     21.21900
   88     3     1      0.13850       8.16900      19.01700     21.36500
   89     3     1      0.13490       6.79300      19.42000     19.33900
   90     3     1      0.13490       9.53900      17.04300     17.00600
   91     3     1      0.13850      10.91100      16.64000     19.03700
   92     3     2      0.09813       7.91200      18.76900     15.97400
   93     3     2      0.09813       6.60500      19.38300     16.93700
   94     3     2      0.09485       5.91800      17.53700     15.39500
   95     3     2      0.09485       7.01100      16.43900     16.19500
   96     3     2      0.09534       4.61800      17.81700     17.53400
   97     3     2      0.09534       5.73600      16.75900     18.34400
   98     3     2      0.09300       5.08800      14.87200     16.82400
   99     3     2      0.09300       3.80100      15.46200     17.83600
  100     3     2      0.09267       2.92200      16.84000     15.90900
  101     3     2      0.09267       4.15800      16.15600     14.88000
  102     3     2      0.09975       3.25400      13.85800     15.31200
  103     3     2      0.09975       2.01000      14.54100     16.33000
  104     3     2      0.08833       1.13000      15.85500     14.37400
  105     3     2      0.08833       2.37400      15.17200     13.35600
  106     3     2      0.08293       0.22900      13.94900     13.05300
  107     3     2      0.08293       0.17700      13.55600     14.76800
  108     3     2      0.08293       1.43300      12.86600     13.74000
  109     4     3     -0.19193      19.35700      33.29000     32.53800
  110     4     3     -0.17213      20.00300      32.04500     31.90200
  111     4     3     -0.18371      18.21700      32.96400     33.51700
  112     4     3     -0.19147      16.96700      32.38100     32.84100
  113     4     3     -0.18727      15.81200      32.17200     33.83000
  114     4     3     -0.19406      14.56400      31.58500     33.15500
  115     4     3     -0.24059      13.40900      31.37600     34.14100
  116     4     3     -0.14028      21.17500      32.38200     30.96500
  117     4     4     -0.07366      22.37900      32.99200     31.65800
  118     4     4     -0.13562      23.24400      32.17800     32.41800
  119     4     4     -0.13385      24.35900      32.74200     33.06700
  120     4     4     -0.13756      24.61300      34.12300     32.96000
  121     4     4     -0.13385      23.75000      34.94000     32.20300
  122     4     4     -0.13562      22.63500      34.37600     31.55400
  123     4     1      0.13186      25.46900      34.55600     33.45800
  124     4     1      0.13850      23.94300      36.00000     32.12200
  125     4     1      0.13490      21.97400      35.01000     30.98000
  126     4     1      0.13490      23.05200      31.11900     32.50600
  127     4     1      0.13850      25.01900      32.11500     33.64800
  128     4     2      0.09813      21.50700      31.47200     30.46200
  129     4     2      0.09813      20.83700      33.04600     30.16900
  130     4     2      0.09485      19.25400      31.49600     31.33100
  131     4     2      0.09485      20.34600      31.36700     32.68400
  132     4     2      0.09534      18.99800      33.96500     31.76100
  133     4     2      0.09534      20.12500      33.84500     33.08100
  134     4     2      0.09300      18.57900      32.28300     34.29000
  135     4     2      0.09300      17.94100      33.88300     34.03800
  136     4     2      0.09267      16.64200      33.04600     32.03800
  137     4     2      0.09267      17.20900      31.42700     32.37100
  138     4     2      0.09975      16.13700      31.51100     34.63500
  139     4     2      0.09975      15.55800      33.12400     34.30000
  140     4     2      0.08833      14.23500      32.24400     32.35000
  141     4     2      0.08833      14.81300      30.63100     32.68700
  142     4     2      0.08293      12.53700      30.95800     33.63600
  143     4     2      0.08293      13.10300      32.31700     34.60100
  144     4     2      0.08293      13.68700      30.68800     34.94000
  145     5     3     -0.19193      19.80000      35.01900     37.90000
  146     5     3     -0.17213      18.89500      34.90200     39.14100
  147     5     3     -0.18371      21.13600      35.72900     38.17400
  148     5     3     -0.19147      20.99100      37.22500     38.49100
  149     5     3     -0.18727      22.34900      37.92200     38.64800
  150     5     3     -0.19406      22.20400      39.41700     38.97000
  151     5     3     -0.24059      23.56000      40.11600     39.12700
  152     5     3     -0.14028      17.58400      34.14600     38.86700
  153     5     4     -0.07366      17.76500      32.68000     38.51800
  154     5     4     -0.13562      18.07000      31.74700     39.53000
  155     5     4     -0.13385      18.24400      30.38600     39.20900
  156     5     4     -0.13756      18.11300      29.95400     37.87400
  157     5     4     -0.13385      17.81100      30.88500     36.86100
  158     5     4     -0.13562      17.63700      32.24500     37.18100
  159     5     1      0.13186      18.24700      28.91100     37.62800
  160     5     1      0.13850      17.71300      30.55500     35.83700
  161     5     1      0.13490      17.41000      32.95400     36.39800
  162     5     1      0.13490      18.17400      32.07300     40.55400
  163     5     1      0.13850      18.47800      29.67400     39.98700
  164     5     2      0.09813      16.94500      34.20100     39.74900
  165     5     2      0.09813      17.02700      34.64400     38.07200
  166     5     2      0.09485      18.64600      35.89800     39.50800
  167     5     2      0.09485      19.43700      34.40800     39.94800
  168     5     2      0.09534      19.26800      35.52800     37.09500
  169     5     2      0.09534      20.01500      34.01700     37.52700
  170     5     2      0.09300      21.66300      35.22200     38.98400
  171     5     2      0.09300      21.77000      35.61400     37.29200
  172     5     2      0.09267      20.42200      37.71300     37.69800
  173     5     2      0.09267      20.41600      37.35700     39.40800
  174     5     2      0.09975      22.92100      37.43300     39.43900
  175     5     2      0.09975      22.92900      37.80200     37.73100
  176     5     2      0.08833      21.63400      39.91100     38.18100
  177     5     2      0.08833      21.62700      39.54200     39.88900
  178     5     2      0.08293      23.42700      41.17500     39.35600
  179     5     2      0.08293      24.15000      40.04800     38.21200
  180     5     2      0.08293      24.14300      39.67500     39.93600
  181     6     3     -0.19193      30.93500      41.04900     10.82600
  182     6     3     -0.17213      31.36500      40.76100     12.27600
  183     6     3     -0.18371      30.26700      39.85200     10.12800
  184     6     3     -0.19147      31.22400      38.68200      9.85300
  185     6     3     -0.18727      30.55100      37.55400      9.05900
  186     6     3     -0.19406      31.50600      36.38200      8.78700
  187     6     3     -0.24059      30.83700      35.25300      7.99400
  188     6     3     -0.14028      31.98400      41.98000     12.97900
  189     6     4     -0.07366      31.02400      43.13400     13.20100
  190     6     4     -0.13562      30.05600      43.05900     14.22400
  191     6     4     -0.13385      29.15900      44.12500     14.42900
  192     6     4     -0.13756      29.22600      45.27000     13.61100
  193     6     4     -0.13385      30.19000      45.34700     12.58700
  194     6     4     -0.13562      31.08800      44.28100     12.38200
  195     6     1      0.13186      28.53800      46.08800     13.76900
  196     6     1      0.13850      30.24200      46.22400     11.95800
  197     6     1      0.13490      31.82100      44.34500     11.59100
  198     6     1      0.13490      29.99800      42.18200     14.85100
  199     6     1      0.13850      28.41900      44.06400     15.21300
  200     6     2      0.09813      32.37000      41.67700     13.95300
  201     6     2      0.09813      32.85300      42.33100     12.41900
  202     6     2      0.09485      32.09500      39.95100     12.28700
  203     6     2      0.09485      30.50900      40.40600     12.85100
  204     6     2      0.09534      31.79100      41.38900     10.24100
  205     6     2      0.09534      30.22800      41.88100     10.82800
  206     6     2      0.09300      29.41500      39.51100     10.71900
  207     6     2      0.09300      29.85000      40.19900      9.18100
  208     6     2      0.09267      32.09500      39.04400      9.30400
  209     6     2      0.09267      31.59900      38.27900     10.79400
  210     6     2      0.09975      29.67800      37.19400      9.60500
  211     6     2      0.09975      30.17900      37.94700      8.11100
  212     6     2      0.08833      32.38100      36.73700      8.24000
  213     6     2      0.08833      31.87800      35.98300      9.73300
  214     6     2      0.08293      31.53600      34.43500      7.81600
  215     6     2      0.08293      30.48700      35.60500      7.02200
  216     6     2      0.08293      29.98100      34.84400      8.53000
  217     7     3     -0.19193       7.11400      13.53400      8.38300
  218     7     3     -0.17213       7.74800      14.41000      7.28700
  219     7     3     -0.18371       5.88100      14.17000      9.04700
  220     7     3     -0.19147       6.20500      15.40400      9.90200
  221     7     3     -0.18727       4.97000      15.94500     10.63700
  222     7     3     -0.19406       5.29300      17.18100     11.48900
  223     7     3     -0.24059       4.06100      17.72300     12.22400
  224     7     3     -0.14028       8.94900      13.74200      6.59600
  225     7     4     -0.07366       8.60200      12.50300      5.79100
  226     7     4     -0.13562       7.97300      12.63100      4.53500
  227     7     4     -0.13385       7.64400      11.48300      3.78900
  228     7     4     -0.13756       7.94200      10.20300      4.29500
  229     7     4     -0.13385       8.56800      10.07100      5.55000
  230     7     4     -0.13562       8.89800      11.21900      6.29700
  231     7     1      0.13186       7.69000       9.32200      3.72200
  232     7     1      0.13850       8.79600       9.09000      5.94000
  233     7     1      0.13490       9.37300      11.11000      7.26100
  234     7     1      0.13490       7.73900      13.61000      4.14400
  235     7     1      0.13850       7.16100      11.58500      2.82700
  236     7     2      0.09813       9.41800      14.45700      5.91900
  237     7     2      0.09813       9.71300      13.49500      7.33300
  238     7     2      0.09485       8.08300      15.35200      7.72000
  239     7     2      0.09485       6.99700      14.66900      6.54000
  240     7     2      0.09534       7.85700      13.28500      9.14100
  241     7     2      0.09534       6.81100      12.58300      7.94100
  242     7     2      0.09300       5.14300      14.42400      8.28500
  243     7     2      0.09300       5.40700      13.41600      9.67900
  244     7     2      0.09267       6.97900      15.15200     10.63000
  245     7     2      0.09267       6.61800      16.19400      9.27400
  246     7     2      0.09975       4.19400      16.19400      9.91100
  247     7     2      0.09975       4.55400      15.16300     11.27500
  248     7     2      0.08833       6.06800      16.93700     12.21700
  249     7     2      0.08833       5.70600      17.96800     10.85400
  250     7     2      0.08293       4.31800      18.60000     12.82000
  251     7     2      0.08293       3.64300      16.97700     12.90100
  252     7     2      0.08293       3.27900      18.01800     11.52500
  253     8     3     -0.19193      48.45900       6.72600     10.28300
  254     8     3     -0.17213      47.16000       5.90500     10.38600
  255     8     3     -0.18371      48.97500       7.24100     11.63700
  256     8     3     -0.19147      48.07900       8.31400     12.27400
  257     8     3     -0.18727      48.68000       8.88300     13.56700
  258     8     3     -0.19406      47.78200       9.95300     14.20600
  259     8     3     -0.24059      48.38100      10.52400     15.49800
  260     8     3     -0.14028      46.68200       5.35300      9.03300
  261     8     4     -0.07366      47.60900       4.32500      8.41100
  262     8     4     -0.13562      47.64100       3.00800      8.91600
  263     8     4     -0.13385      48.50400       2.05300      8.34500
  264     8     4     -0.13756      49.33800       2.41000      7.26700
  265     8     4     -0.13385      49.30900       3.72400      6.76200
  266     8     4     -0.13562      48.44600       4.68000      7.33200
  267     8     1      0.13186      50.00000       1.67600      6.83000
  268     8     1      0.13850      49.95000       4.00000      5.93700
  269     8     1      0.13490      48.43400       5.68800      6.94300
  270     8     1      0.13490      47.00600       2.73000      9.74400
  271     8     1      0.13850      48.52700       1.04500      8.73500
  272     8     2      0.09813      45.70500       4.88700      9.15800
  273     8     2      0.09813      46.52400       6.17300      8.33000
  274     8     2      0.09485      46.36700       6.52700     10.80100
  275     8     2      0.09485      47.29800       5.08100     11.08600
  276     8     2      0.09534      48.32100       7.56200      9.59600
  277     8     2      0.09534      49.23500       6.10000      9.83800
  278     8     2      0.09300      49.10400       6.40300     12.32400
  279     8     2      0.09300      49.97200       7.65700     11.48600
  280     8     2      0.09267      47.91600       9.12400     11.56200
  281     8     2      0.09267      47.09500       7.89600     12.49400
  282     8     2      0.09975      48.84700       8.07300     14.27900
  283     8     2      0.09975      49.66100       9.31200     13.35500
  284     8     2      0.08833      47.61400      10.76600     13.49800
  285     8     2      0.08833      46.80000       9.52800     14.42400
  286     8     2      0.08293      47.72400      11.27900     15.93100
  287     8     2      0.08293      49.34700      10.99500     15.31300
  288     8     2      0.08293      48.52500       9.74500     16.24700
  289     9     3     -0.19193      33.69500      25.13000     46.92700
  290     9     3     -0.17213      34.30200      25.01800     45.51600
  291     9     3     -0.18371      32.32000      25.81600     46.95800
  292     9     3     -0.19147      32.36700      27.31300     46.61300
  293     9     3     -0.18727      30.99600      27.98900     46.76100
  294     9     3     -0.19406      31.04200      29.48300     46.41200
  295     9     3     -0.24059      29.67400      30.16100     46.55900
  296     9     3     -0.14028      35.65300      24.28500     45.49300
  297     9     4     -0.07366      35.57900      22.81800     45.87700
  298     9     4     -0.13562      35.07100      21.87400     44.96000
  299     9     4     -0.13385      34.99500      20.51400     45.31500
  300     9     4     -0.13756      35.42700      20.09100     46.58700
  301     9     4     -0.13385      35.93300      21.03200     47.50600
  302     9     4     -0.13562      36.00900      22.39300     47.15100
  303     9     1      0.13186      35.36900      19.04700     46.85900
  304     9     1      0.13850      36.26200      20.70900     48.48300
  305     9     1      0.13490      36.39300      23.10900     47.86300
  306     9     1      0.13490      34.73600      22.19300     43.98400
  307     9     1      0.13850      34.60500      19.79300     44.61000
  308     9     2      0.09813      36.07900      24.34500     44.49100
  309     9     2      0.09813      36.36600      24.79600     46.14200
  310     9     2      0.09485      34.44700      26.01600     45.10100
  311     9     2      0.09485      33.60200      24.51200     44.85200
  312     9     2      0.09534      34.38500      25.65000     47.59200
  313     9     2      0.09534      33.58500      24.12600     47.34200
  314     9     2      0.09300      31.63500      25.29700     46.28600
  315     9     2      0.09300      31.90100      25.69700     47.95800
  316     9     2      0.09267      33.09000      27.81400     47.25800
  317     9     2      0.09267      32.72100      27.44900     45.59000
  318     9     2      0.09975      30.27100      27.48600     46.11900
  319     9     2      0.09975      30.63800      27.86500     47.78400
  320     9     2      0.08833      31.76500      29.99100     47.05200
  321     9     2      0.08833      31.39700      29.61200     45.38700
  322     9     2      0.08293      29.73500      31.22000     46.30500
  323     9     2      0.08293      29.30400      30.08900     47.58300
  324     9     2      0.08293      28.93300      29.70700     45.90200
  325    10     3     -0.19193      24.80600      19.47400     44.24600
  326    10     3     -0.17213      24.80600      18.80500     45.63400
  327    10     3     -0.18371      24.73600      21.00900     44.29800
  328    10     3     -0.19147      23.39300      21.55100     44.81100
  329    10     3     -0.18727      23.31900      23.08300     44.74500
  330    10     3     -0.19406      21.97800      23.62500     45.26100
  331    10     3     -0.24059      21.90100      25.15500     45.19600
  332    10     3     -0.14028      24.92800      17.27400     45.56900
  333    10     4     -0.07366      26.25100      16.77100     45.02200
  334    10     4     -0.13562      27.40900      16.81100     45.82700
  335    10     4     -0.13385      28.63900      16.35100     45.32000
  336    10     4     -0.13756      28.71800      15.84900     44.00700
  337    10     4     -0.13385      27.56400      15.80900     43.19900
  338    10     4     -0.13562      26.33300      16.26900     43.70600
  339    10     1      0.13186      29.66200      15.49500     43.61800
  340    10     1      0.13850      27.62300      15.42600     42.19100
  341    10     1      0.13490      25.45400      16.24100     43.07900
  342    10     1      0.13490      27.35500      17.19800     46.83400
  343    10     1      0.13850      29.52400      16.38400     45.94000
  344    10     2      0.09813      24.80400      16.86000     46.57100
  345    10     2      0.09813      24.10900      16.85900     44.98000
  346    10     2      0.09485      23.88400      19.05400     46.15900
  347    10     2      0.09485      25.61800      19.20900     46.23800
  348    10     2      0.09534      23.98600      19.08500     43.64300
  349    10     2      0.09534      25.72100      19.19200     43.72100
  350    10     2      0.09300      25.55500      21.39400     44.90900
  351    10     2      0.09300      24.91200      21.39300     43.29200
  352    10     2      0.09267      22.57800      21.12200     44.22500
  353    10     2      0.09267      23.23100      21.23200     45.84100
  354    10     2      0.09975      24.13500      23.51300     45.32800
  355    10     2      0.09975      23.47100      23.41100     43.71500
  356    10     2      0.08833      21.15800      23.19900     44.68000
  357    10     2      0.08833      21.82300      23.30200     46.29300
  358    10     2      0.08293      20.94000      25.51300     45.56900
  359    10     2      0.08293      22.01200      25.51500     44.17200
  360    10     2      0.08293      22.68200      25.61800     45.80000
  361    11     3     -0.19193      16.20000      13.32700     22.57200
  362    11     3     -0.17213      17.12900      13.90900     23.65400
  363    11     3     -0.18371      15.02000      14.24500     22.21100
  364    11     3     -0.19147      13.98700      14.39800     23.33800
  365    11     3     -0.18727      12.77000      15.22900     22.90500
  366    11     3     -0.19406      11.74000      15.38600     24.03200
  367    11     3     -0.24059      10.52400      16.21500     23.60300
  368    11     3     -0.14028      18.33300      13.00500     23.96900
  369    11     4     -0.07366      19.31400      12.84200     22.82300
  370    11     4     -0.13562      20.20500      13.88800     22.50400
  371    11     4     -0.13385      21.11300      13.74200     21.43700
  372    11     4     -0.13756      21.13300      12.55100     20.68600
  373    11     4     -0.13385      20.24300      11.50600     21.00100
  374    11     4     -0.13562      19.33500      11.65100     22.06800
  375    11     1      0.13186      21.83000      12.44000     19.86700
  376    11     1      0.13850      20.25600      10.59300     20.42400
  377    11     1      0.13490      18.65100      10.84700     22.30000
  378    11     1      0.13490      20.19200      14.80400     23.07500
  379    11     1      0.13850      21.79400      14.54600     21.19500
  380    11     2      0.09813      18.87900      13.41700     24.81900
  381    11     2      0.09813      17.98600      12.02300     24.29500
  382    11     2      0.09485      16.56600      14.06300     24.57500
  383    11     2      0.09485      17.48400      14.89200     23.34700
  384    11     2      0.09534      15.82900      12.35000     22.88200
  385    11     2      0.09534      16.78400      13.15000     21.66700
  386    11     2      0.09300      15.39400      15.22400     21.90800
  387    11     2      0.09300      14.52400      13.83200     21.33100
  388    11     2      0.09267      13.65500      13.41200     23.66600
  389    11     2      0.09267      14.44900      14.87100     24.20500
  390    11     2      0.09975      13.10200      16.21400     22.57300
  391    11     2      0.09975      12.29600      14.75800     22.04200
  392    11     2      0.08833      11.40500      14.40300     24.36700
  393    11     2      0.08833      12.20900      15.86000     24.89700
  394    11     2      0.08293       9.80900      16.31200     24.42100
  395    11     2      0.08293      10.00300      15.75000     22.76400
  396    11     2      0.08293      10.81500      17.22100     23.30000