LAMMPS data file of the system for full atom style

    5000 atoms
    4900 bonds
    9600 angles
   13500 dihedrals

    2 atom types
    2 bond types
    3 angle types
    2 dihedral types

    0.000000    50.000000 xlo xhi
    0.000000    50.000000 ylo yhi
    0.000000    50.000000 zlo zhi

 Masses 

    1       1.0080
    2      12.0110

 Pair Coeffs 

    1       0.0300       2.5000
    2       0.0660       3.5000

 Bond Coeffs 

    1     268.0000        1.5290
    2     340.0000        1.0900

 Angle Coeffs 

    1      33.0000      107.8000
    2      37.5000      110.7000
    3      58.3500      112.7000

 Dihedral Coeffs 

    1       0.0000        0.0000       0.3000        0.0000
    2       0.8500       -0.2000       0.2000        0.0000

 Atoms 

    1     1     2     -0.16956      13.46600       5.87800     26.60500
    2     1     2     -0.10514      14.74300       5.03400     26.39500
    3     1     2     -0.17939      13.22600       6.93700     25.51600
    4     1     2     -0.18810      11.98800       7.79900     25.80400
    5     1     2     -0.18850      11.73900       8.84800     24.71000
    6     1     2     -0.18171      10.50100       9.70900     24.99800
    7     1     2     -0.24417      10.25100      10.75400     23.90500
    8     1     2     -0.16001      14.75600       4.22300     25.07500
    9     1     2     -0.17429      13.67100       3.13400     24.91900
   10     1     2     -0.23714      12.39800       3.60500     24.20000
   11     1     2     -0.18363      15.04400       4.13000     27.61200
   12     1     2     -0.19249      15.55900       4.88900     28.84700
   13     1     2     -0.18575      15.94800       3.94000     29.99300
   14     1     2     -0.17108      16.36000       4.66600     31.28300
   15     1     2     -0.18672      17.67700       5.45000     31.15700
   16     1     2     -0.24349      18.11700       6.06900     32.48900
   17     1     1      0.08441      18.27900       5.30500     33.24900
   18     1     1      0.08441      17.36800       6.76600     32.86800
   19     1     1      0.08441      19.05000       6.62100     32.37200
   20     1     1      0.09075      18.46500       4.78900     30.79000
   21     1     1      0.09075      17.57200       6.24200     30.41700
   22     1     1      0.08909      15.55800       5.33300     31.60500
   23     1     1      0.08909      16.46600       3.92300     32.07600
   24     1     1      0.08621      16.75100       3.27400     29.67100
   25     1     1      0.08621      15.09700       3.29500     30.21900
   26     1     1      0.09401      14.79900       5.58400     29.20400
   27     1     1      0.09401      16.42100       5.49400     28.56200
   28     1     1      0.09589      15.80100       3.39500     27.33100
   29     1     1      0.09589      14.15800       3.55400     27.87900
   30     1     1      0.09364      15.57700       5.73500     26.31400
   31     1     1      0.09148      12.59900       5.22400     26.69900
   32     1     1      0.09148      13.53500       6.39900     27.55900
   33     1     1      0.09096      14.10500       7.57800     25.43300
   34     1     1      0.09096      13.10500       6.45600     24.54500
   35     1     1      0.09185      11.11200       7.15500     25.89600
   36     1     1      0.09185      12.10700       8.29800     26.76700
   37     1     1      0.09112      11.62000       8.34800     23.74800
   38     1     1      0.09112      12.61700       9.49000     24.61600
   39     1     1      0.09362       9.62200       9.06900     25.09200
   40     1     1      0.09362      10.61700      10.21300     25.95800
   41     1     1      0.08172      11.09500      11.43800     23.80800
   42     1     1      0.08172       9.36700      11.35200     24.13200
   43     1     1      0.08172      10.09000      10.28300     22.93400
   44     1     1      0.08327      15.72900       3.73300     25.00300
   45     1     1      0.08327      14.73700       4.89200     24.21400
   46     1     1      0.07937      13.41700       2.69100     25.88000
   47     1     1      0.07937      14.09300       2.31900     24.33000
   48     1     1      0.08129      11.86100       4.36800     24.76300
   49     1     1      0.08129      12.62700       4.01800     23.21700
   50     1     1      0.08129      11.70900       2.77200     24.05100
   51     2     2     -0.16956      37.46700      40.79400      5.24600
   52     2     2     -0.10514      36.54100      41.76600      6.01200
   53     2     2     -0.17939      38.90600      40.74100      5.78600
   54     2     2     -0.18810      39.80800      39.82000      4.95000
   55     2     2     -0.18850      41.24200      39.75500      5.49600
   56     2     2     -0.18171      42.14300      38.83400      4.66100
   57     2     2     -0.24417      43.57400      38.76700      5.20700
   58     2     2     -0.16001      36.36600      41.42100      7.51300
   59     2     2     -0.17429      35.69000      40.07100      7.84100
   60     2     2     -0.23714      36.67000      38.90700      8.05600
   61     2     2     -0.18363      35.17400      41.93200      5.31200
   62     2     2     -0.19249      35.22800      42.75800      4.01500
   63     2     2     -0.18575      33.83200      42.99000      3.41300
   64     2     2     -0.17108      33.85600      43.71400      2.05700
   65     2     2     -0.18672      34.33000      45.17500      2.14600
   66     2     2     -0.24349      34.23700      45.90000      0.79900
   67     2     1      0.08441      33.21000      45.92600      0.43100
   68     2     1      0.08441      34.85200      45.41200      0.04200
   69     2     1      0.08441      34.58100      46.93200      0.88800
   70     2     1      0.09075      33.73200      45.71100      2.88600
   71     2     1      0.09075      35.36100      45.21300      2.49800
   72     2     1      0.08909      34.48100      43.16100      1.35400
   73     2     1      0.08909      32.84700      43.69500      1.64000
   74     2     1      0.08621      33.20800      43.54400      4.11700
   75     2     1      0.08621      33.34300      42.02400      3.27700
   76     2     1      0.09401      35.85400      42.25700      3.27700
   77     2     1      0.09401      35.70300      43.71800      4.22100
   78     2     1      0.09589      34.48100      42.42800      5.99600
   79     2     1      0.09589      34.73600      40.95500      5.10500
   80     2     1      0.09364      37.02300      42.74500      5.99300
   81     2     1      0.09148      37.02900      39.79700      5.23000
   82     2     1      0.09148      37.52000      41.10000      4.20200
   83     2     1      0.09096      39.32600      41.74800      5.80000
   84     2     1      0.09096      38.90700      40.39400      6.81900
   85     2     1      0.09185      39.38100      38.81600      4.93000
   86     2     1      0.09185      39.82700      40.16800      3.91600
   87     2     1      0.09112      41.22200      39.40700      6.52900
   88     2     1      0.09112      41.66900      40.76000      5.51900
   89     2     1      0.09362      41.72000      37.82900      4.63700
   90     2     1      0.09362      42.16800      39.18100      3.62700
   91     2     1      0.08172      44.04500      39.75100      5.21000
   92     2     1      0.08172      44.19300      38.10700      4.59800
   93     2     1      0.08172      43.59200      38.38500      6.22900
   94     2     1      0.08327      35.75900      42.21200      7.95900
   95     2     1      0.08327      37.31900      41.49700      8.03700
   96     2     1      0.07937      34.95300      39.80600      7.08600
   97     2     1      0.07937      35.12400      40.19300      8.76500
   98     2     1      0.08129      37.22300      38.65900      7.15100
   99     2     1      0.08129      37.39500      39.13800      8.83700
  100     2     1      0.08129      36.13600      38.00700      8.36200
  101     3     2     -0.16956      23.13500       8.92500     42.39600
  102     3     2     -0.10514      23.12700       7.57800     41.63900
  103     3     2     -0.17939      22.77000      10.13900     41.52400
  104     3     2     -0.18810      22.86200      11.46200     42.29900
  105     3     2     -0.18850      22.48400      12.67300     41.43400
  106     3     2     -0.18171      22.57500      13.99500     42.20900
  107     3     2     -0.24417      22.19600      15.20400     41.34600
  108     3     2     -0.16001      21.75200       7.20300     41.03100
  109     3     2     -0.17429      20.59300       6.97200     42.02600
  110     3     2     -0.23714      19.73300       8.21600     42.29600
  111     3     2     -0.18363      23.69200       6.42800     42.50200
  112     3     2     -0.19249      25.21600       6.48400     42.70600
  113     3     2     -0.18575      25.74700       5.26400     43.47600
  114     3     2     -0.17108      27.24800       5.34000     43.79700
  115     3     2     -0.18672      28.15000       5.25500     42.55400
  116     3     2     -0.24349      29.63900       5.22200     42.91500
  117     3     1      0.08441      29.87900       4.35700     43.53500
  118     3     1      0.08441      29.93400       6.11900     43.46200
  119     3     1      0.08441      30.25600       5.16500     42.01800
  120     3     1      0.09075      27.89900       4.36200     41.97700
  121     3     1      0.09075      27.96400       6.10600     41.89800
  122     3     1      0.08909      27.46200       6.25500     44.35100
  123     3     1      0.08909      27.49700       4.51700     44.47000
  124     3     1      0.08621      25.53400       4.34900     42.92000
  125     3     1      0.08621      25.19900       5.17600     44.41600
  126     3     1      0.09401      25.49000       7.39100     43.24500
  127     3     1      0.09401      25.70500       6.54600     41.73200
  128     3     1      0.09589      23.45300       5.47500     42.02600
  129     3     1      0.09589      23.19400       6.40700     43.47200
  130     3     1      0.09364      23.80100       7.68900     40.78700
  131     3     1      0.09148      22.47900       8.86800     43.26400
  132     3     1      0.09148      24.13100       9.10100     42.80200
  133     3     1      0.09096      23.43300      10.17600     40.65900
  134     3     1      0.09096      21.75900      10.02800     41.13200
  135     3     1      0.09185      22.20600      11.41800     43.17000
  136     3     1      0.09185      23.87600      11.59000     42.68300
  137     3     1      0.09112      21.47100      12.54400     41.05100
  138     3     1      0.09112      23.13900      12.71500     40.56100
  139     3     1      0.09362      21.92100      13.95600     43.08100
  140     3     1      0.09362      23.58800      14.12900     42.59100
  141     3     1      0.08172      22.85500      15.29800     40.48200
  142     3     1      0.08172      22.26800      16.13000     41.91800
  143     3     1      0.08172      21.17200      15.12300     40.97700
  144     3     1      0.08327      21.88900       6.28000     40.46300
  145     3     1      0.08327      21.45500       7.93200     40.27600
  146     3     1      0.07937      20.95600       6.55600     42.96400
  147     3     1      0.07937      19.93600       6.20800     41.60800
  148     3     1      0.08129      20.29200       9.00700     42.79300
  149     3     1      0.08129      19.32700       8.62700     41.37100
  150     3     1      0.08129      18.88800       7.96700     42.94000
  151     4     2     -0.16956      34.27800      37.10000      4.79900
  152     4     2     -0.10514      34.34100      35.78900      5.61400
  153     4     2     -0.17939      32.98400      37.27200      3.98400
  154     4     2     -0.18810      32.99600      38.55100      3.13400
  155     4     2     -0.18850      31.70000      38.73000      2.33100
  156     4     2     -0.18171      31.71200      40.01000      1.48200
  157     4     2     -0.24417      30.41600      40.19100      0.68100
  158     4     2     -0.16001      33.21400      35.64400      6.66600
  159     4     2     -0.17429      33.19100      36.68400      7.80900
  160     4     2     -0.23714      32.29400      37.90100      7.54000
  161     4     2     -0.18363      35.73300      35.57200      6.24900
  162     4     2     -0.19249      36.83100      35.18400      5.24300
  163     4     2     -0.18575      38.16900      34.87200      5.93200
  164     4     2     -0.17108      39.31800      34.59100      4.95100
  165     4     2     -0.18672      39.14400      33.28700      4.15400
  166     4     2     -0.24349      40.35700      32.97900      3.26800
  167     4     1      0.08441      41.26400      32.86400      3.86200
  168     4     1      0.08441      40.53000      33.77500      2.54200
  169     4     1      0.08441      40.20700      32.05300      2.71200
  170     4     1      0.09075      38.97900      32.45500      4.84000
  171     4     1      0.09075      38.25500      33.34800      3.52700
  172     4     1      0.08909      39.43600      35.43300      4.26800
  173     4     1      0.08909      40.24900      34.53500      5.52000
  174     4     1      0.08621      38.05100      34.02800      6.61400
  175     4     1      0.08621      38.45000      35.72300      6.55500
  176     4     1      0.09401      36.98100      35.98900      4.52300
  177     4     1      0.09401      36.50100      34.31600      4.67000
  178     4     1      0.09589      35.66500      34.77600      6.99300
  179     4     1      0.09589      36.03900      36.46400      6.79800
  180     4     1      0.09364      34.18900      34.97000      4.90900
  181     4     1      0.09148      34.43000      37.95600      5.45600
  182     4     1      0.09148      35.11200      37.12700      4.09800
  183     4     1      0.09096      32.84600      36.40500      3.33600
  184     4     1      0.09096      32.12200      37.29800      4.65000
  185     4     1      0.09185      33.14500      39.41600      3.78300
  186     4     1      0.09185      33.84800      38.52800      2.45200
  187     4     1      0.09112      30.84900      38.75400      3.01300
  188     4     1      0.09112      31.55000      37.86400      1.68300
  189     4     1      0.09362      31.86000      40.87800      2.12600
  190     4     1      0.09362      32.55900      39.98900      0.79500
  191     4     1      0.08172      30.25400      39.35800     -0.00400
  192     4     1      0.08172      30.44900      41.10500      0.08800
  193     4     1      0.08172      29.54900      40.25600      1.33900
  194     4     1      0.08327      33.31800      34.65600      7.12000
  195     4     1      0.08327      32.23800      35.60500      6.18000
  196     4     1      0.07937      34.19800      37.00900      8.06400
  197     4     1      0.07937      32.81100      36.19200      8.70500
  198     4     1      0.08129      32.65100      38.50300      6.70500
  199     4     1      0.08129      31.27000      37.59900      7.31800
  200     4     1      0.08129      32.26000      38.55400      8.41300
  201     5     2     -0.16956      21.71600      13.06400     26.51900
  202     5     2     -0.10514      21.25300      13.91100     25.31200
  203     5     2     -0.17939      22.42600      11.75500     26.13200
  204     5     2     -0.18810      22.80300      10.91200     27.35900
  205     5     2     -0.18850      23.52400       9.61200     26.97600
  206     5     2     -0.18171      23.90100       8.76900     28.20300
  207     5     2     -0.24417      24.62300       7.47200     27.82000
  208     5     2     -0.16001      22.40500      14.37000     24.38300
  209     5     2     -0.17429      23.46100      15.31400     25.00000
  210     5     2     -0.23714      24.69100      14.59700     25.57700
  211     5     2     -0.18363      20.37500      15.10500     25.74900
  212     5     2     -0.19249      18.96200      14.71000     26.21400
  213     5     2     -0.18575      18.09000      15.93500     26.53400
  214     5     2     -0.17108      16.71100      15.57900     27.10900
  215     5     2     -0.18672      15.78500      14.87600     26.10100
  216     5     2     -0.24349      14.38200      14.63400     26.67000
  217     5     1      0.08441      13.89500      15.57200     26.94000
  218     5     1      0.08441      14.41700      14.00600     27.56100
  219     5     1      0.08441      13.74700      14.13300     25.93800
  220     5     1      0.09075      15.70600      15.47600     25.19300
  221     5     1      0.09075      16.21400      13.92000     25.80200
  222     5     1      0.08909      16.83000      14.96100     28.00000
  223     5     1      0.08909      16.23100      16.50000     27.44600
  224     5     1      0.08621      17.97000      16.55200     25.64100
  225     5     1      0.08621      18.61400      16.56000     27.26000
  226     5     1      0.09401      19.02200      14.07600     27.09900
  227     5     1      0.09401      18.48400      14.11100     25.43800
  228     5     1      0.09589      20.27000      15.79600     24.90900
  229     5     1      0.09589      20.87400      15.67000     26.53600
  230     5     1      0.09364      20.62100      13.26800     24.69600
  231     5     1      0.09148      22.34900      13.66200     27.17300
  232     5     1      0.09148      20.84900      12.80000     27.12300
  233     5     1      0.09096      21.78000      11.17200     25.47400
  234     5     1      0.09096      23.32900      11.97300     25.56200
  235     5     1      0.09185      23.44000      11.50000     28.02100
  236     5     1      0.09185      21.90200      10.67500     27.92900
  237     5     1      0.09112      24.42300       9.85000     26.40700
  238     5     1      0.09112      22.88700       9.02400     26.31100
  239     5     1      0.09362      24.53800       9.35300     28.86800
  240     5     1      0.09362      23.00300       8.52700     28.77300
  241     5     1      0.08172      23.99900       6.84300     27.18500
  242     5     1      0.08172      24.88000       6.89300     28.70800
  243     5     1      0.08172      25.54900       7.67800     27.28100
  244     5     1      0.08327      21.95200      14.89000     23.53600
  245     5     1      0.08327      22.89600      13.50900     23.92800
  246     5     1      0.07937      23.01700      15.96300     25.75300
  247     5     1      0.07937      23.81400      15.98400     24.21500
  248     5     1      0.08129      24.44100      13.96500     26.42800
  249     5     1      0.08129      25.17400      13.97100     24.82600
  250     5     1      0.08129      25.43100      15.32100     25.92200
  251     6     2     -0.16956      25.21800      39.21300      4.57000
  252     6     2     -0.10514      26.59500      38.51500      4.50700
  253     6     2     -0.17939      24.40400      39.11700      3.26800
  254     6     2     -0.18810      23.07700      39.88600      3.35200
  255     6     2     -0.18850      22.25800      39.78000      2.05800
  256     6     2     -0.18171      20.93000      40.54800      2.14300
  257     6     2     -0.24417      20.11100      40.44000      0.85200
  258     6     2     -0.16001      26.52000      36.99300      4.22300
  259     6     2     -0.17429      25.81200      36.12300      5.28500
  260     6     2     -0.23714      24.31800      35.88400      5.01600
  261     6     2     -0.18363      27.44900      38.81000      5.76000
  262     6     2     -0.19249      28.00400      40.24500      5.81900
  263     6     2     -0.18575      28.93500      40.46000      7.02300
  264     6     2     -0.17108      29.41800      41.91000      7.18000
  265     6     2     -0.18672      30.36200      42.37100      6.05500
  266     6     2     -0.24349      30.91300      43.78100      6.29800
  267     6     1      0.08441      31.48400      43.83100      7.22600
  268     6     1      0.08441      30.10900      44.51600      6.36000
  269     6     1      0.08441      31.57500      44.08500      5.48700
  270     6     1      0.09075      31.19400      41.67100      5.96300
  271     6     1      0.09075      29.83900      42.35600      5.09900
  272     6     1      0.08909      28.56000      42.58100      7.24500
  273     6     1      0.08909      29.93900      41.99700      8.13500
  274     6     1      0.08621      29.79400      39.78900      6.95600
  275     6     1      0.08621      28.40500      40.17500      7.93400
  276     6     1      0.09401      27.18500      40.96200      5.87100
  277     6     1      0.09401      28.54200      40.45900      4.89500
  278     6     1      0.09589      28.29700      38.12300      5.78300
  279     6     1      0.09589      26.87600      38.60200      6.66300
  280     6     1      0.09364      27.12900      38.94300      3.65700
  281     6     1      0.09148      24.64200      38.82500      5.40900
  282     6     1      0.09148      25.36300      40.27000      4.78800
  283     6     1      0.09096      24.99800      39.50500      2.43900
  284     6     1      0.09096      24.19400      38.07400      3.03300
  285     6     1      0.09185      22.48900      39.50300      4.18800
  286     6     1      0.09185      23.27700      40.93700      3.57200
  287     6     1      0.09112      22.05800      38.73000      1.84000
  288     6     1      0.09112      22.84700      40.16000      1.22200
  289     6     1      0.09362      20.33900      40.16900      2.97700
  290     6     1      0.09362      21.12600      41.59900      2.35800
  291     6     1      0.08172      20.65700      40.84600     -0.00000
  292     6     1      0.08172      19.17400      40.99300      0.93700
  293     6     1      0.08172      19.86200      39.40200      0.62500
  294     6     1      0.08327      27.54500      36.63000      4.12700
  295     6     1      0.08327      26.08500      36.80800      3.24000
  296     6     1      0.07937      25.95300      36.53000      6.28500
  297     6     1      0.07937      26.29900      35.14700      5.30100
  298     6     1      0.08129      23.73600      36.80300      5.06500
  299     6     1      0.08129      24.15800      35.44100      4.03300
  300     6     1      0.08129      23.89900      35.20000      5.75500
  301     7     2     -0.16956      33.62500      28.94700     24.04600
  302     7     2     -0.10514      32.59800      30.10000     23.98500
  303     7     2     -0.17939      34.11400      28.46800     22.66800
  304     7     2     -0.18810      35.07500      27.27500     22.77400
  305     7     2     -0.18850      35.57500      26.80400     21.40000
  306     7     2     -0.18171      36.53700      25.61200     21.50600
  307     7     2     -0.24417      37.03900      25.14400     20.13500
  308     7     2     -0.16001      33.13200      31.38800     23.30900
  309     7     2     -0.17429      34.31300      32.09900     24.00600
  310     7     2     -0.23714      35.69900      31.68200     23.49000
  311     7     2     -0.18363      31.99200      30.40600     25.37300
  312     7     2     -0.19249      31.00100      29.34000     25.87500
  313     7     2     -0.18575      30.34200      29.73900     27.20600
  314     7     2     -0.17108      29.43200      28.65000     27.79600
  315     7     2     -0.18672      28.16500      28.38700     26.96400
  316     7     2     -0.24349      27.22700      27.37700     27.63500
  317     7     1      0.08441      26.89200      27.73200     28.61000
  318     7     1      0.08441      27.71800      26.41400     27.77800
  319     7     1      0.08441      26.33900      27.20600     27.02400
  320     7     1      0.09075      27.62900      29.32400     26.80300
  321     7     1      0.09075      28.43600      28.01500     25.97600
  322     7     1      0.08909      29.99600      27.72300     27.91900
  323     7     1      0.08909      29.13700      28.95600     28.80100
  324     7     1      0.08621      29.77700      30.66500     27.08100
  325     7     1      0.08621      31.12400      29.96300     27.93300
  326     7     1      0.09401      31.51100      28.38500     26.00400
  327     7     1      0.09401      30.23300      29.18000     25.11800
  328     7     1      0.09589      31.46200      31.36000     25.32900
  329     7     1      0.09589      32.78500      30.54200     26.10800
  330     7     1      0.09364      31.77500      29.76000     23.35400
  331     7     1      0.09148      34.46900      29.23300     24.67200
  332     7     1      0.09148      33.17400      28.09200     24.54800
  333     7     1      0.09096      33.25600      28.19200     22.05400
  334     7     1      0.09096      34.61600      29.28200     22.14500
  335     7     1      0.09185      35.92800      27.55100     23.39600
  336     7     1      0.09185      34.57600      26.44800     23.28300
  337     7     1      0.09112      36.07400      27.63100     20.89200
  338     7     1      0.09112      34.72200      26.53100     20.77600
  339     7     1      0.09362      37.39100      25.88300     22.12800
  340     7     1      0.09362      36.04100      24.78200     22.01000
  341     7     1      0.08172      36.21200      24.82800     19.49700
  342     7     1      0.08172      37.71900      24.29800     20.23700
  343     7     1      0.08172      37.57600      25.93900     19.61600
  344     7     1      0.08327      32.30300      32.09600     23.25800
  345     7     1      0.08327      33.37800      31.19800     22.26400
  346     7     1      0.07937      34.26300      31.97800     25.08700
  347     7     1      0.07937      34.21200      33.17100     23.83200
  348     7     1      0.08129      35.92100      30.63700     23.69900
  349     7     1      0.08129      35.78300      31.83200     22.41400
  350     7     1      0.08129      36.48100      32.27700     23.96500
  351     8     2     -0.16956      42.49200      31.18900     34.52900
  352     8     2     -0.10514      43.49500      30.74400     33.44200
  353     8     2     -0.17939      43.11000      32.06100     35.63600
  354     8     2     -0.18810      42.09400      32.41800     36.73100
  355     8     2     -0.18850      42.70600      33.29800     37.83000
  356     8     2     -0.18171      41.69000      33.65600     38.92500
  357     8     2     -0.24417      42.30000      34.53800     40.02100
  358     8     2     -0.16001      44.15500      31.91700     32.67200
  359     8     2     -0.17429      43.21500      32.81500     31.83600
  360     8     2     -0.23714      42.70300      34.05900     32.57700
  361     8     2     -0.18363      42.87500      29.71400     32.47100
  362     8     2     -0.19249      42.67500      28.31600     33.08100
  363     8     2     -0.18575      42.16000      27.29900     32.05000
  364     8     2     -0.17108      41.84100      25.92000     32.64900
  365     8     2     -0.18672      43.08300      25.15900     33.14300
  366     8     2     -0.24349      42.74500      23.74600     33.63100
  367     8     1      0.08441      42.30600      23.14400     32.83400
  368     8     1      0.08441      42.03700      23.77100     34.46000
  369     8     1      0.08441      43.64100      23.22900     33.97800
  370     8     1      0.09075      43.82000      25.09600     32.34000
  371     8     1      0.09075      43.56000      25.70800     33.95400
  372     8     1      0.08909      41.12100      26.02700     33.46200
  373     8     1      0.08909      41.34100      25.32100     31.88400
  374     8     1      0.08621      42.88100      27.19100     31.23800
  375     8     1      0.08621      41.25100      27.69200     31.59200
  376     8     1      0.09401      41.97200      28.36600     33.91200
  377     8     1      0.09401      43.62100      27.96900     33.49900
  378     8     1      0.09589      43.52500      29.60900     31.60000
  379     8     1      0.09589      41.92400      30.08500     32.08700
  380     8     1      0.09364      44.31400      30.23600     33.95400
  381     8     1      0.09148      41.64700      31.70000     34.06900
  382     8     1      0.09148      42.06600      30.30700     35.00600
  383     8     1      0.09096      43.95600      31.53600     36.08100
  384     8     1      0.09096      43.50900      32.98100     35.21000
  385     8     1      0.09185      41.24300      32.93400     36.28300
  386     8     1      0.09185      41.69900      31.50200     37.17500
  387     8     1      0.09112      43.09900      34.21400     37.38500
  388     8     1      0.09112      43.55800      32.78400     38.27700
  389     8     1      0.09362      40.83700      34.17200     38.48100
  390     8     1      0.09362      41.29600      32.74400     39.37400
  391     8     1      0.08172      43.13300      34.03800     40.51500
  392     8     1      0.08172      41.55900      34.77800     40.78500
  393     8     1      0.08172      42.67000      35.48000     39.61300
  394     8     1      0.08327      44.89100      31.48500     31.99100
  395     8     1      0.08327      44.75200      32.53000     33.34700
  396     8     1      0.07937      42.37800      32.24400     31.43800
  397     8     1      0.07937      43.76800      33.16100     30.96300
  398     8     1      0.08129      42.06600      33.80600     33.42300
  399     8     1      0.08129      43.52900      34.66500     32.95200
  400     8     1      0.08129      42.11400      34.68900     31.90900
  401     9     2     -0.16956      31.83100      24.57000      7.80500
  402     9     2     -0.10514      32.39700      25.90700      7.27700
  403     9     2     -0.17939      31.24400      23.66100      6.71100
  404     9     2     -0.18810      30.62900      22.37700      7.28900
  405     9     2     -0.18850      30.05500      21.46200      6.19800