LAMMPS data file of the system for full atom style

    4998 atoms
    5145 bonds
   10584 angles
   17199 dihedrals

    2 atom types
    2 bond types
    3 angle types
    2 dihedral types

    0.000000    50.000000 xlo xhi
    0.000000    50.000000 ylo yhi
    0.000000    50.000000 zlo zhi

 Masses 

    1       1.0080
    2      12.0110

 Pair Coeffs 

    1       0.0300       2.5000
    2       0.0660       3.5000

 Bond Coeffs 

    1     268.0000        1.5290
    2     340.0000        1.0900

 Angle Coeffs 

    1      33.0000      107.8000
    2      37.5000      110.7000
    3      58.3500      112.7000

 Dihedral Coeffs 

    1       0.0000        0.0000       0.3000        0.0000
    2       0.8500       -0.2000       0.2000        0.0000

 Atoms 

    1     1     2     -0.12319      34.74700      25.60000     46.54300
    2     1     2     -0.11083      35.85500      24.61000     46.07700
    3     1     2     -0.17209      35.25500      23.38000     45.34100
    4     1     2     -0.16611      36.13300      22.11400     45.38500
    5     1     2     -0.17273      37.62300      22.46500     45.43300
    6     1     2     -0.18515      37.96300      23.27500     46.69800
    7     1     2     -0.17478      35.31700      26.85400     47.25100
    8     1     2     -0.18132      34.22100      27.85000     47.66600
    9     1     2     -0.17906      33.35900      28.27000     46.47000
   10     1     2     -0.17915      32.75800      27.03800     45.78500
   11     1     2     -0.18463      33.85300      26.04700     45.36000
   12     1     2     -0.17078      36.78600      24.13100     47.21400
   13     1     1      0.09685      37.21000      24.96400     47.77400
   14     1     1      0.09685      36.20000      23.55400     47.93200
   15     1     1      0.09867      36.48700      25.14200     45.36400
   16     1     1      0.08816      35.07400      23.65100     44.30000
   17     1     1      0.08816      34.27900      23.12600     45.75600
   18     1     1      0.08620      35.91500      21.47800     44.52500
   19     1     1      0.08620      35.88000      21.52400     46.26800
   20     1     1      0.08348      38.23400      21.56200     45.39000
   21     1     1      0.08348      37.87800      23.04700     44.54600
   22     1     1      0.08676      38.82200      23.91200     46.48500
   23     1     1      0.08676      38.28400      22.60200     47.49500
   24     1     1      0.10150      34.11200      25.07800     47.26200
   25     1     1      0.09262      35.86100      26.57800     48.15300
   26     1     1      0.09262      36.03500      27.35200     46.59800
   27     1     1      0.09029      34.67300      28.73000     48.12400
   28     1     1      0.09029      33.58900      27.39900     48.43200
   29     1     1      0.08603      32.56500      28.94300     46.79700
   30     1     1      0.08603      33.96500      28.83100     45.75700
   31     1     1      0.09212      32.17500      27.34500     44.91400
   32     1     1      0.09212      32.05800      26.54500     46.46100
   33     1     1      0.09731      34.47200      26.50200     44.58500
   34     1     1      0.09731      33.36700      25.18900     44.89400
   35     2     2     -0.12319      22.48100      19.34400     46.48600
   36     2     2     -0.11083      22.87000      18.09300     45.64500
   37     2     2     -0.17209      24.25200      17.52200     46.06800
   38     2     2     -0.16611      24.98200      16.72600     44.96900
   39     2     2     -0.17273      23.99400      16.02300     44.03400
   40     2     2     -0.18515      23.09300      17.04000     43.30900
   41     2     2     -0.17478      21.09100      19.91500     46.11000
   42     2     2     -0.18132      20.69200      21.12100     46.97600
   43     2     2     -0.17906      20.73000      20.77900     48.47000
   44     2     2     -0.17915      22.11400      20.24900     48.86200
   45     2     2     -0.18463      22.50900      19.03700     48.00400
   46     2     2     -0.17078      22.85300      18.33300     44.11800
   47     2     1      0.09685      21.90900      18.75800     43.78100
   48     2     1      0.09685      23.61900      19.07000     43.86800
   49     2     1      0.09867      22.12300      17.32200     45.84300
   50     2     1      0.08816      24.11200      16.88000     46.93900
   51     2     1      0.08816      24.91300      18.32600     46.39400
   52     2     1      0.08620      25.66400      16.00300     45.42100
   53     2     1      0.08620      25.60600      17.40100     44.38100
   54     2     1      0.08348      24.52200      15.40400     43.30700
   55     2     1      0.08348      23.37700      15.34000     44.62000
   56     2     1      0.08676      22.14000      16.56200     43.07900
   57     2     1      0.08676      23.53300      17.30500     42.34600
   58     2     1      0.10150      23.22000      20.12300     46.28900
   59     2     1      0.09262      21.07300      20.24300     45.07100
   60     2     1      0.09262      20.33500      19.13400     46.19900
   61     2     1      0.09029      19.69300      21.46200     46.70000
   62     2     1      0.09029      21.36500      21.95500     46.77400
   63     2     1      0.08603      20.48400      21.66000     49.06400
   64     2     1      0.08603      19.96900      20.03100     48.69800
   65     2     1      0.09212      22.12000      19.97500     49.91900
   66     2     1      0.09212      22.85700      21.03900     48.74700
   67     2     1      0.09731      21.83800      18.20400     48.22200
   68     2     1      0.09731      23.50300      18.71400     48.31600
   69     3     2     -0.12319      14.89900      12.46200     21.43700
   70     3     2     -0.11083      14.05400      13.72200     21.78500
   71     3     2     -0.17209      12.91600      13.39300     22.79000
   72     3     2     -0.16611      11.70800      14.34900     22.73100
   73     3     2     -0.17273      12.13200      15.76300     22.32100
   74     3     2     -0.18515      12.76200      15.76900     20.91600
   75     3     2     -0.17478      16.06300      12.76700     20.46200
   76     3     2     -0.18132      16.92300      11.52800     20.16000
   77     3     2     -0.17906      17.46800      10.89300     21.44400
   78     3     2     -0.17915      16.32000      10.55100     22.40000
   79     3     2     -0.18463      15.46700      11.79000     22.71200
   80     3     2     -0.17078      13.46400      14.44300     20.55100
   81     3     1      0.09685      14.22600      14.67200     19.80700
   82     3     1      0.09685      12.75400      13.77600     20.05800
   83     3     1      0.09867      14.72100      14.43800     22.27000
   84     3     1      0.08816      13.32900      13.40300     23.80000
   85     3     1      0.08816      12.54800      12.37800     22.63000
   86     3     1      0.08620      11.19700      14.36500     23.69500
   87     3     1      0.08620      10.98000      13.97500     22.01000
   88     3     1      0.08348      11.28200      16.44600     22.35500
   89     3     1      0.08348      12.85300      16.14100     23.04800
   90     3     1      0.08676      13.47100      16.59500     20.85400
   91     3     1      0.08676      11.99700      15.97900     20.16700
   92     3     1      0.10150      14.24000      11.74300     20.94600
   93     3     1      0.09262      15.68700      13.13900     19.51000
   94     3     1      0.09262      16.69300      13.55700     20.87500
   95     3     1      0.09029      17.74900      11.80100     19.50200
   96     3     1      0.09029      16.32800      10.79600     19.61300
   97     3     1      0.08603      18.03900       9.99500     21.20600
   98     3     1      0.08603      18.16200      11.58000     21.93000
   99     3     1      0.09212      16.72000      10.13300     23.32600
  100     3     1      0.09212      15.69200       9.77500     21.96000
  101     3     1      0.09731      16.06600      12.51200     23.27000
  102     3     1      0.09731      14.66200      11.48500     23.38100
  103     4     2     -0.12319      37.31400      30.64000     42.95000
  104     4     2     -0.11083      37.17800      29.08900     42.98000
  105     4     2     -0.17209      37.80400      28.48100     44.26500
  106     4     2     -0.16611      38.26300      27.01600     44.12500
  107     4     2     -0.17273      37.39100      26.24700     43.12700
  108     4     2     -0.18515      37.47700      26.86700     41.72000
  109     4     2     -0.17478      36.66800      31.27800     41.69600
  110     4     2     -0.18132      36.76300      32.81300     41.69700
  111     4     2     -0.17906      36.15000      33.41600     42.96600
  112     4     2     -0.17915      36.81000      32.81900     44.21400
  113     4     2     -0.18463      36.70500      31.28600     44.22000
  114     4     2     -0.17078      37.76200      28.38400     41.73400
  115     4     1      0.09685      37.36700      28.79800     40.80700
  116     4     1      0.09685      38.83900      28.55500     41.70400
  117     4     1      0.09867      36.11200      28.85600     42.99400
  118     4     1      0.08816      37.07600      28.54900     45.07400
  119     4     1      0.08816      38.66300      29.07100     44.58700
  120     4     1      0.08620      38.25300      26.52600     45.10000
  121     4     1      0.08620      39.29800      26.98700     43.78300
  122     4     1      0.08348      37.67800      25.19500     43.09300
  123     4     1      0.08348      36.35600      26.26700     43.47400
  124     4     1      0.08676      36.54300      26.66800     41.19200
  125     4     1      0.08676      38.25600      26.36900     41.14200
  126     4     1      0.10150      38.37800      30.88200     42.93100
  127     4     1      0.09262      37.15100      30.92500     40.78600
  128     4     1      0.09262      35.62200      30.97800     41.62700
  129     4     1      0.09029      36.26200      33.21700     40.81600
  130     4     1      0.09029      37.80900      33.11400     41.61700
  131     4     1      0.08603      36.26700      34.50000     42.96100
  132     4     1      0.08603      35.07700      33.22100     42.98600
  133     4     1      0.09212      36.34200      33.22700     45.11200
  134     4     1      0.09212      37.85900      33.11600     44.25400
  135     4     1      0.09731      35.65800      30.99500     44.31300
  136     4     1      0.09731      37.20200      30.91800     45.11900
  137     5     2     -0.12319      44.97700       7.90300     10.24700
  138     5     2     -0.11083      43.60700       7.60100      9.57300
  139     5     2     -0.17209      42.55400       7.10900     10.60500
  140     5     2     -0.16611      41.43000       6.23800     10.01100
  141     5     2     -0.17273      41.11900       6.63200      8.56400
  142     5     2     -0.18515      42.34800       6.43400      7.65800
  143     5     2     -0.17478      46.03700       8.42900      9.24700
  144     5     2     -0.18132      47.37400       8.77200      9.92700
  145     5     2     -0.17906      47.18400       9.77900     11.06700
  146     5     2     -0.17915      46.16500       9.25100     12.08300
  147     5     2     -0.18463      44.82600       8.91900     11.40700
  148     5     2     -0.17078      43.69200       6.59700      8.40000
  149     5     1      0.09685      44.43800       6.89100      7.66300
  150     5     1      0.09685      44.01700       5.62900      8.78700
  151     5     1      0.09867      43.23700       8.53700      9.15100
  152     5     1      0.08816      42.11100       7.97800     11.09200
  153     5     1      0.08816      43.03700       6.53700     11.39900
  154     5     1      0.08620      40.53400       6.31100     10.63100
  155     5     1      0.08620      41.72800       5.18800     10.03500
  156     5     1      0.08348      40.27300       6.05900      8.18100
  157     5     1      0.08348      40.81100       7.67800      8.54100
  158     5     1      0.08676      42.29100       7.14300      6.83100
  159     5     1      0.08676      42.31700       5.44300      7.20100
  160     5     1      0.10150      45.35700       6.97000     10.66700
  161     5     1      0.09262      46.24700       7.68800      8.47700
  162     5     1      0.09262      45.65300       9.31000      8.73100
  163     5     1      0.09029      48.07200       9.17200      9.19100
  164     5     1      0.09029      47.83000       7.86000     10.31500
  165     5     1      0.08603      48.13800       9.97300     11.55800
  166     5     1      0.08603      46.84400      10.73400     10.66400
  167     5     1      0.09212      46.01100       9.99000     12.87100
  168     5     1      0.09212      46.56100       8.36000     12.57300
  169     5     1      0.09731      44.37100       9.83700     11.03300
  170     5     1      0.09731      44.14900       8.53700     12.17100
  171     6     2     -0.12319      41.45900      31.16000      9.82200
  172     6     2     -0.11083      42.34800      30.95900      8.55900
  173     6     2     -0.17209      42.57500      29.45400      8.24900
  174     6     2     -0.16611      43.86100      29.14700      7.45700
  175     6     2     -0.17273      44.23000      30.30000      6.51900
  176     6     2     -0.18515      44.50300      31.59400      7.30800
  177     6     2     -0.17478      41.18800      32.65200     10.13700
  178     6     2     -0.18132      40.27000      32.84300     11.35600
  179     6     2     -0.17906      38.94300      32.09400     11.18500
  180     6     2     -0.17915      39.20000      30.60700     10.91200
  181     6     2     -0.18463      40.10800      30.41500      9.68700
  182     6     2     -0.17078      43.71100      31.68600      8.63000
  183     6     1      0.09685      43.60000      32.74200      8.87000
  184     6     1      0.09685      44.30000      31.25300      9.44000
  185     6     1      0.09867      41.81300      31.39100      7.71200
  186     6     1      0.08816      41.71600      29.08000      7.69100
  187     6     1      0.08816      42.60400      28.87400      9.17300
  188     6     1      0.08620      43.74200      28.21800      6.89600
  189     6     1      0.08620      44.68600      28.97800      8.15000
  190     6     1      0.08348      45.09900      30.04100      5.91100
  191     6     1      0.08348      43.40900      30.46300      5.81800
  192     6     1      0.08676      44.26600      32.44800      6.67100
  193     6     1      0.08676      45.56800      31.67600      7.52900
  194     6     1      0.10150      41.99000      30.73600     10.67600
  195     6     1      0.09262      42.11600      33.18100     10.34500
  196     6     1      0.09262      40.74400      33.13800      9.26600
  197     6     1      0.09029      40.07700      33.90500     11.51300
  198     6     1      0.09029      40.77800      32.48900     12.25400
  199     6     1      0.08603      38.32900      32.21000     12.07900
  200     6     1      0.08603      38.37600      32.52900     10.36200
  201     6     1      0.09212      38.25200      30.09000     10.75700
  202     6     1      0.09212      39.66100      30.14600     11.78700
  203     6     1      0.09731      39.58700      30.76000      8.79300
  204     6     1      0.09731      40.26600      29.34500      9.55100
  205     7     2     -0.12319      42.61500       6.75500     38.47500
  206     7     2     -0.11083      42.98200       8.26700     38.42800
  207     7     2     -0.17209      43.99300       8.57800     37.28900
  208     7     2     -0.16611      44.85600       9.83400     37.52200
  209     7     2     -0.17273      44.10300      10.89000     38.33700
  210     7     2     -0.18515      43.73000      10.35300     39.73100
  211     7     2     -0.17478      41.58200       6.41900     39.57900
  212     7     2     -0.18132      41.18800       4.93300     39.58900
  213     7     2     -0.17906      40.65900       4.48000     38.22300
  214     7     2     -0.17915      41.69100       4.77200     37.12800
  215     7     2     -0.18463      42.07800       6.25900     37.10900
  216     7     2     -0.17078      43.52000       8.82400     39.76600
  217     7     1      0.09685      42.85200       8.60600     40.59800
  218     7     1      0.09685      44.46400       8.33000     40.00100
  219     7     1      0.09867      42.06500       8.81800     38.21000
  220     7     1      0.08816      43.44100       8.69400     36.35500
  221     7     1      0.08816      44.66600       7.73400     37.13500
  222     7     1      0.08620      45.18000      10.24700     36.56500
  223     7     1      0.08620      45.76600       9.55900     38.05600
  224     7     1      0.08348      44.69600      11.80100     38.43100
  225     7     1      0.08348      43.19700      11.17300     37.79900
  226     7     1      0.08676      42.82600      10.86100     40.07200
  227     7     1      0.08676      44.50600      10.61700     40.45100
  228     7     1      0.10150      43.52600       6.19600     38.69700
  229     7     1      0.09262      41.97700       6.65500     40.56600
  230     7     1      0.09262      40.69000       7.03300     39.44800
  231     7     1      0.09029      40.43200       4.75400     40.35600
  232     7     1      0.09029      42.05200       4.32700     39.86700
  233     7     1      0.08603      40.42600       3.41500     38.24500
  234     7     1      0.08603      39.72500       4.99600     37.99900
  235     7     1      0.09212      41.29200       4.47900     36.15500
  236     7     1      0.09212      42.58200       4.16300     37.28800
  237     7     1      0.09731      41.21100       6.85500     36.81900
  238     7     1      0.09731      42.82000       6.40400     36.32400
  239     8     2     -0.12319      45.37900      36.66500     22.99900
  240     8     2     -0.11083      43.96200      36.13200     22.63600
  241     8     2     -0.17209      43.01200      37.27900     22.19100
  242     8     2     -0.16611      41.51200      36.98900     22.39800
  243     8     2     -0.17273      41.20500      35.49500     22.26000
  244     8     2     -0.18515      41.95900      34.67200     23.32200
  245     8     2     -0.17478      46.35800      35.54000     23.41400
  246     8     2     -0.18132      47.76900      36.06600     23.72400
  247     8     2     -0.17906      48.34800      36.85500     22.54400
  248     8     2     -0.17915      47.40500      37.99700     22.15000
  249     8     2     -0.18463      45.99800      37.47000     21.82900
  250     8     2     -0.17078      43.29200      35.31300     23.76400
  251     8     1      0.09685      43.93500      34.51100     24.12400
  252     8     1      0.09685      43.11900      35.96600     24.62000
  253     8     1      0.09867      44.07500      35.45500     21.78900
  254     8     1      0.08816      43.19100      37.49000     21.13600
  255     8     1      0.08816      43.25200      38.20100     22.72300
  256     8     1      0.08620      40.91800      37.57100     21.69100
  257     8     1      0.08620      41.20900      37.32200     23.39200
  258     8     1      0.08348      40.13200      35.31200     22.33500
  259     8     1      0.08348      41.49900      35.16400     21.26300
  260     8     1      0.08676      42.13900      33.67200     22.92600
  261     8     1      0.08676      41.32800      34.53300     24.20100
  262     8     1      0.10150      45.27500      37.34000     23.85000
  263     8     1      0.09262      46.00300      35.02300     24.30500
  264     8     1      0.09262      46.41400      34.78900     22.62400
  265     8     1      0.09029      48.43000      35.23400     23.97300
  266     8     1      0.09029      47.73500      36.70300     24.60900
  267     8     1      0.08603      49.33100      37.25200     22.80400
  268     8     1      0.08603      48.50000      36.19000     21.69300
  269     8     1      0.09212      47.80800      38.53000     21.28700
  270     8     1      0.09212      47.34900      38.72500     22.96000
  271     8     1      0.09731      46.04000      36.84500     20.93600
  272     8     1      0.09731      45.37000      38.32400     21.57000
  273     9     2     -0.12319      41.33000      26.46300     41.54700
  274     9     2     -0.11083      41.69000      25.08800     42.18300
  275     9     2     -0.17209      40.77000      23.95200     41.65600
  276     9     2     -0.16611      40.62100      22.75000     42.61100
  277     9     2     -0.17273      41.88800      22.53600     43.44400
  278     9     2     -0.18515      42.18700      23.76100     44.32900
  279     9     2     -0.17478      42.25300      27.60900     42.02800
  280     9     2     -0.18132      41.92400      28.95500     41.36000
  281     9     2     -0.17906      41.97000      28.85100     39.83100
  282     9     2     -0.17915      41.02900      27.74400     39.34100
  283     9     2     -0.18463      41.36500      26.39800     40.00000
  284     9     2     -0.17078      41.68000      25.09000     43.72900
  285     9     1      0.09685      42.29400      25.88800     44.14200
  286     9     1      0.09685      40.66300      25.28400     44.07500
  287     9     1      0.09867      42.71100      24.84700     41.88200
  288     9     1      0.08816      41.16200      23.60100     40.70100
  289     9     1      0.08816      39.77100      24.33700     41.44500
  290     9     1      0.08620      40.37700      21.85100     42.04400
  291     9     1      0.08620      39.78000      22.92000     43.28500
  292     9     1      0.08348      41.79800      21.64000     44.06100
  293     9     1      0.08348      42.72800      22.35600     42.77100
  294     9     1      0.08676      43.26300      23.81500     44.50000
  295     9     1      0.08676      41.73700      23.62600     45.31400
  296     9     1      0.10150      40.31100      26.71400     41.84800
  297     9     1      0.09262      42.16800      27.75300     43.10400
  298     9     1      0.09262      43.29500      27.35000     41.83300
  299     9     1      0.09029      42.62400      29.72000     41.70000
  300     9     1      0.09029      40.93300      29.28600     41.67500
  301     9     1      0.08603      41.69200      29.80600     39.38100
  302     9     1      0.08603      42.98900      28.64100     39.50500
  303     9     1      0.09212      41.09500      27.65500     38.25600
  304     9     1      0.09212      39.99500      28.01400     39.56300
  305     9     1      0.09731      42.35100      26.06800     39.66900
  306     9     1      0.09731      40.65800      25.65600     39.62700
  307    10     2     -0.12319      13.99700      41.23200     13.58200
  308    10     2     -0.11083      14.59700      42.64700     13.33400
  309    10     2     -0.17209      13.57100      43.59600     12.65600
  310    10     2     -0.16611      14.19800      44.74600     11.84200
  311    10     2     -0.17273      15.53900      45.18700     12.43700
  312    10     2     -0.18515      16.56000      44.03500     12.42200
  313    10     2     -0.17478      14.98700      40.27300     14.29000
  314    10     2     -0.18132      14.37200      38.89200     14.57500
  315    10     2     -0.17906      13.08100      39.00900     15.39300
  316    10     2     -0.17915      12.07800      39.92500     14.68200
  317    10     2     -0.18463      12.68800      41.30800     14.40600
  318    10     2     -0.17078      15.91200      42.63700     12.52100
  319    10     1      0.09685      16.65300      41.96400     12.94900
  320    10     1      0.09685      15.70500      42.25800     11.51900
  321    10     1      0.09867      14.84100      43.07300     14.30900
  322    10     1      0.08816      12.92300      44.01700     13.42500
  323    10     1      0.08816      12.91400      43.03400     11.98900
  324    10     1      0.08620      13.50500      45.58700     11.79000
  325    10     1      0.08620      14.35800      44.42200     10.81300
  326    10     1      0.08348      15.93600      46.04900     11.89800
  327    10     1      0.08348      15.37800      45.52100     13.46400
  328    10     1      0.08676      17.26200      44.17900     13.24500
  329    10     1      0.08676      17.15900      44.08100     11.51100
  330    10     1      0.10150      13.75500      40.79600     12.61100
  331    10     1      0.09262      15.87500      40.11200     13.68100
  332    10     1      0.09262      15.33000      40.72000     15.22400
  333    10     1      0.09029      15.09200      38.26900     15.10700
  334    10     1      0.09029      14.16500      38.38300     13.63300
  335    10     1      0.08603      12.64400      38.02100     15.54700
  336    10     1      0.08603      13.30500      39.40400     16.38500
  337    10     1      0.09212      11.17700      40.03000     15.28900
  338    10     1      0.09212      11.76400      39.46800     13.74300
  339    10     1      0.09731      12.88000      41.81500     15.35400
  340    10     1      0.09731      11.93800      41.90900     13.89000
  341    11     2     -0.12319       2.36100      32.20600     43.32000
  342    11     2     -0.11083       2.36600      31.96800     44.85900
  343    11     2     -0.17209       1.54500      30.70700     45.24800
  344    11     2     -0.16611       0.98700      30.72200     46.68500
  345    11     2     -0.17273       1.90500      31.49800     47.63500
  346    11     2     -0.18515       2.03500      32.97100     47.20300
  347    11     2     -0.17478       3.20000      33.43700     42.89800
  348    11     2     -0.18132       3.23200      33.63800     41.37300
  349    11     2     -0.17906       3.73900      32.38600     40.65000
  350    11     2     -0.17915       2.89100      31.16700     41.03100
  351    11     2     -0.18463       2.86800      30.95900     42.55300
  352    11     2     -0.17078       1.87600      33.18100     45.68300
  353    11     1      0.09685       2.40900      34.09500     45.42200
  354    11     1      0.09685       0.82700      33.36800     45.44600
  355    11     1      0.09867       3.40000      31.79000     45.15800
  356    11     1      0.08816       2.17700      29.82700     45.12100
  357    11     1      0.08816       0.70600      30.57200     44.56500
  358    11     1      0.08620       0.84200      29.70100     47.04000
  359    11     1      0.08620       0.00000      31.18600     46.69000
  360    11     1      0.08348       1.53800      31.43900     48.66200
  361    11     1      0.08348       2.89000      31.02900     47.63900
  362    11     1      0.08676       3.00500      33.34700     47.53200
  363    11     1      0.08676       1.29100      33.57700     47.72200
  364    11     1      0.10150       1.33000      32.39000     43.01300
  365    11     1      0.09262       2.80000      34.35000     43.33600
  366    11     1      0.09262       4.21900      33.33600     43.27400
  367    11     1      0.09029       3.86400      34.49200     41.12500
  368    11     1      0.09029       2.23100      33.88700     41.01700
  369    11     1      0.08603       3.71300      32.53900     39.57000
  370    11     1      0.08603       4.78300      32.20600     40.91000
  371    11     1      0.09212       3.28200      30.27500     40.53900
  372    11     1      0.09212       1.87200      31.29800     40.66300
  373    11     1      0.09731       3.87000      30.69900     42.89800
  374    11     1      0.09731       2.24100      30.09200     42.76400
  375    12     2     -0.12319      13.34300      26.37200     22.34600
  376    12     2     -0.11083      13.03400      24.91400     22.79600
  377    12     2     -0.17209      13.15600      23.90900     21.61600
  378    12     2     -0.16611      12.32100      22.62400     21.77700
  379    12     2     -0.17273      12.17400      22.23100     23.25000
  380    12     2     -0.18515      11.44400      23.32700     24.04800
  381    12     2     -0.17478      13.26200      27.39100     23.50900
  382    12     2     -0.18132      13.61600      28.82200     23.06900
  383    12     2     -0.17906      15.00000      28.88400     22.41300
  384    12     2     -0.17915      15.07800      27.90600     21.23500
  385    12     2     -0.18463      14.73600      26.47500     21.67600
  386    12     2     -0.17078      11.65700      24.74600     23.47900
  387    12     1      0.09685      11.51900      25.45000     24.29900
  388    12     1      0.09685      10.87300      24.97200     22.75400
  389    12     1      0.09867      13.78300      24.63600     23.54000
  390    12     1      0.08816      14.20600      23.63900     21.49600
  391    12     1      0.08816      12.86200      24.38400     20.67900
  392    12     1      0.08620      12.77200      21.81100     21.20500
  393    12     1      0.08620      11.32800      22.77700     21.35200
  394    12     1      0.08348      11.64500      21.28100     23.34500
  395    12     1      0.08348      13.16600      22.06800     23.67300
  396    12     1      0.08676      11.78000      23.28700     25.08500
  397    12     1      0.08676      10.37400      23.11600     24.07500
  398    12     1      0.10150      12.59400      26.65900     21.60500
  399    12     1      0.09262      12.25900      27.42200     23.93100
  400    12     1      0.09262      13.92800      27.08300     24.31700
  401    12     1      0.09029      13.58200      29.49300     23.92800
  402    12     1      0.09029      12.86200      29.18500     22.36900
  403    12     1      0.08603      15.20900      29.89900     22.07300
  404    12     1      0.08603      15.76800      28.64000     23.14800
  405    12     1      0.09212      16.07700      27.93200     20.79700