LAMMPS data file of the system for full atom style

    5000 atoms
    5125 bonds
   10500 angles
   16875 dihedrals

    2 atom types
    2 bond types
    3 angle types
    2 dihedral types

    0.000000    50.000000 xlo xhi
    0.000000    50.000000 ylo yhi
    0.000000    50.000000 zlo zhi

 Masses 

    1       1.0080
    2      12.0110

 Pair Coeffs 

    1       0.0300       2.5000
    2       0.0660       3.5000

 Bond Coeffs 

    1     268.0000        1.5290
    2     340.0000        1.0900

 Angle Coeffs 

    1      33.0000      107.8000
    2      37.5000      110.7000
    3      58.3500      112.7000

 Dihedral Coeffs 

    1       0.0000        0.0000       0.3000        0.0000
    2       0.8500       -0.2000       0.2000        0.0000

 Atoms 

    1     1     2     -0.07430      10.75000      33.99600     14.02100
    2     1     2     -0.13155      10.48900      34.82400     12.71200
    3     1     2     -0.14965      11.03800      34.95400     15.20700
    4     1     2     -0.17824      11.81700      36.20700     14.78300
    5     1     2     -0.18246      11.00800      37.07300     13.80200
    6     1     2     -0.07352       9.64700      32.90600     14.27400
    7     1     2     -0.18251       9.53900      31.97300     13.02600
    8     1     2     -0.18303       9.85700      32.62800     11.67400
    9     1     2     -0.17963       9.56000      34.12200     11.70900
   10     1     2     -0.04692       9.71400      32.05700     15.60700
   11     1     2     -0.23845       9.29600      32.87800     16.84900
   12     1     2     -0.24031       8.70600      30.88200     15.55800
   13     1     2     -0.23703      11.11800      31.45800     15.83800
   14     1     2     -0.19490       9.98800      36.25200     12.99600
   15     1     1      0.09790       9.75500      36.77500     12.06700
   16     1     1      0.09790       9.04900      36.19300     13.55000
   17     1     1      0.10135      11.45700      34.92800     12.21700
   18     1     1      0.08618      11.67500      33.44500     13.84600
   19     1     1      0.08946      10.10000      35.26800     15.66600
   20     1     1      0.08946      11.61700      34.44100     15.97200
   21     1     1      0.07858      12.09900      36.79700     15.65700
   22     1     1      0.07858      12.75200      35.89800     14.31400
   23     1     1      0.09470      10.48000      37.86100     14.34400
   24     1     1      0.09470      11.69800      37.58500     13.12800
   25     1     1      0.08889       8.70600      33.45700     14.31100
   26     1     1      0.08705       8.52600      31.57300     12.97700
   27     1     1      0.08705      10.19600      31.11000     13.13000
   28     1     1      0.09160      10.91100      32.47900     11.43100
   29     1     1      0.09160       9.29200      32.14000     10.87900
   30     1     1      0.09701       9.68800      34.55600     10.71600
   31     1     1      0.09701       8.51400      34.27600     11.97700
   32     1     1      0.08313      10.05800      33.57200     17.19000
   33     1     1      0.08313       8.38300      33.44800     16.66600
   34     1     1      0.08313       9.10200      32.23600     17.70900
   35     1     1      0.08332       8.65600      30.35000     16.50800
   36     1     1      0.08332       8.96800      30.12800     14.81400
   37     1     1      0.08332       7.69800      31.23100     15.33200
   38     1     1      0.08138      11.88300      32.22300     15.95300
   39     1     1      0.08138      11.14400      30.84700     16.74000
   40     1     1      0.08138      11.43000      30.82000     15.01100
   41     2     2     -0.07430      18.08800       6.78100      4.91200
   42     2     2     -0.13155      17.51500       7.33100      6.26700
   43     2     2     -0.14965      17.79300       7.78300      3.76500
   44     2     2     -0.17824      16.44200       8.49400      3.93000
   45     2     2     -0.18246      16.41100       9.36900      5.19500
   46     2     2     -0.07352      19.58100       6.30800      5.04000
   47     2     2     -0.18251      19.69500       5.24300      6.17600
   48     2     2     -0.18303      18.70400       5.39800      7.33800
   49     2     2     -0.17963      18.28600       6.85400      7.50800
   50     2     2     -0.04692      20.33300       5.82200      3.73600
   51     2     2     -0.23845      20.70600       6.99600      2.80000
   52     2     2     -0.24031      21.69000       5.16700      4.10000
   53     2     2     -0.23703      19.50900       4.78100      2.94900
   54     2     2     -0.19490      17.37600       8.86500      6.28200
   55     2     1      0.09790      17.03700       9.21600      7.25700
   56     2     1      0.09790      18.36100       9.31000      6.12800
   57     2     1      0.10135      16.50400       6.92800      6.35700
   58     2     1      0.08618      17.51100       5.88400      4.68700
   59     2     1      0.08946      18.57800       8.53900      3.72100
   60     2     1      0.08946      17.78700       7.26700      2.80800
   61     2     1      0.07858      16.21800       9.10100      3.05100
   62     2     1      0.07858      15.65400       7.74200      3.98500
   63     2     1      0.09470      16.66700      10.40100      4.94400
   64     2     1      0.09470      15.39100       9.39900      5.58100
   65     2     1      0.08889      20.12700       7.18100      5.39900
   66     2     1      0.08705      20.70500       5.28000      6.58800
   67     2     1      0.08705      19.57200       4.23600      5.77800
   68     2     1      0.09160      17.81600       4.79200      7.14900
   69     2     1      0.09160      19.14200       5.01200      8.25900
   70     2     1      0.09701      17.66700       6.96800      8.39900
   71     2     1      0.09701      19.17400       7.46700      7.67100
   72     2     1      0.08313      19.86600       7.38600      2.23400
   73     2     1      0.08313      21.15100       7.82600      3.35200
   74     2     1      0.08313      21.43200       6.69400      2.04500
   75     2     1      0.08332      22.27500       4.92500      3.21200
   76     2     1      0.08332      21.57500       4.22700      4.64000
   77     2     1      0.08332      22.30000       5.83000      4.71600
   78     2     1      0.08138      18.56300       5.18300      2.59300
   79     2     1      0.08138      20.05200       4.42800      2.07200
   80     2     1      0.08138      19.27500       3.90500      3.55400
   81     3     2     -0.07430       5.87700      35.00200     40.48000
   82     3     2     -0.13155       7.28900      34.37800     40.77100
   83     3     2     -0.14965       5.28600      34.39600     39.18000
   84     3     2     -0.17824       6.35800      34.10300     38.12000
   85     3     2     -0.18246       7.35400      33.03400     38.60100
   86     3     2     -0.07352       4.93700      34.97100     41.73900
   87     3     2     -0.18251       5.63900      35.69200     42.93300
   88     3     2     -0.18303       7.17200      35.60100     42.95900
   89     3     2     -0.17963       7.65400      34.33400     42.26300
   90     3     2     -0.04692       3.44500      35.47100     41.57900
   91     3     2     -0.23845       2.56600      34.46200     40.80300
   92     3     2     -0.24031       2.76000      35.60000     42.96300
   93     3     2     -0.23703       3.36900      36.85100     40.89100
   94     3     2     -0.19490       7.47400      32.98800     40.13400
   95     3     1      0.09790       8.43800      32.55900     40.40900
   96     3     1      0.09790       6.71800      32.31200     40.53800
   97     3     1      0.10135       8.01800      35.03700     40.29300
   98     3     1      0.08618       6.05500      36.05700     40.27000
   99     3     1      0.08946       4.76300      33.46700     39.40800
  100     3     1      0.08946       4.56000      35.07900     38.74400
  101     3     1      0.07858       5.89500      33.78800     37.18400
  102     3     1      0.07858       6.89300      35.02800     37.89600
  103     3     1      0.09470       7.05100      32.04900     38.23900
  104     3     1      0.09470       8.33000      33.23000     38.15200
  105     3     1      0.08889       4.87700      33.92000     42.02400
  106     3     1      0.08705       5.26000      35.27000     43.86500
  107     3     1      0.08705       5.37700      36.74900     42.95600
  108     3     1      0.09160       7.60100      36.47000     42.45800
  109     3     1      0.09160       7.53200      35.63700     43.98800
  110     3     1      0.09701       8.73400      34.22600     42.37900
  111     3     1      0.09701       7.20600      33.46400     42.74500
  112     3     1      0.08313       2.73800      34.46700     39.73100
  113     3     1      0.08313       2.71400      33.44100     41.15900
  114     3     1      0.08313       1.50400      34.68400     40.91400
  115     3     1      0.08332       1.70000      35.83600     42.87200
  116     3     1      0.08332       3.18500      36.39800     43.57400
  117     3     1      0.08332       2.83500      34.67300     43.53300
  118     3     1      0.08138       3.76900      36.83300     39.87900
  119     3     1      0.08138       2.33900      37.20100     40.81700
  120     3     1      0.08138       3.92700      37.61000     41.43900
  121     4     2     -0.07430      28.06400      23.68800     24.20500
  122     4     2     -0.13155      27.03700      22.54500     23.88100
  123     4     2     -0.14965      29.41000      23.07500     24.67600
  124     4     2     -0.17824      29.22200      21.79400     25.50200
  125     4     2     -0.18246      28.58100      20.67100     24.67000
  126     4     2     -0.07352      28.16300      24.75200     23.05300
  127     4     2     -0.18251      26.74500      25.33300     22.75700
  128     4     2     -0.18303      25.56800      24.37500     22.99100
  129     4     2     -0.17963      26.00200      22.92500     22.81000
  130     4     2     -0.04692      29.23100      25.91100     23.18500
  131     4     2     -0.23845      30.67500      25.41100     22.95000
  132     4     2     -0.24031      29.00700      26.98600     22.09100
  133     4     2     -0.23703      29.14900      26.61700     24.55500
  134     4     2     -0.19490      27.71700      21.21200     23.51800
  135     4     1      0.09790      26.97700      20.46100     23.23700
  136     4     1      0.09790      28.34100      21.36300     22.63500
  137     4     1      0.10135      26.47800      22.36700     24.80200
  138     4     1      0.08618      27.65700      24.22100     25.06500
  139     4     1      0.08946      30.03300      22.84100     23.81300
  140     4     1      0.08946      29.95600      23.79200     25.28600
  141     4     1      0.07858      30.17700      21.45800     25.91000
  142     4     1      0.07858      28.59000      22.02000     26.36200
  143     4     1      0.09470      29.35600      20.02100     24.25700
  144     4     1      0.09470      27.98100      20.04000     25.32700
  145     4     1      0.08889      28.44000      24.18300     22.16400
  146     4     1      0.08705      26.71200      25.65800     21.71600
  147     4     1      0.08705      26.55900      26.22500     23.35400
  148     4     1      0.09160      25.18000      24.50800     24.00200
  149     4     1      0.09160      24.74600      24.61900     22.31700
  150     4     1      0.09701      25.13900      22.26100     22.87500
  151     4     1      0.09701      26.41500      22.79400     21.80900
  152     4     1      0.08313      31.08900      24.86300     23.79100
  153     4     1      0.08313      30.74100      24.77100     22.06900
  154     4     1      0.08313      31.36700      26.23900     22.79200
  155     4     1      0.08332      29.79700      27.73800     22.09400
  156     4     1      0.08332      28.07700      27.54000     22.22400
  157     4     1      0.08332      28.98800      26.54300     21.09500
  158     4     1      0.08138      29.36300      25.94300     25.38300
  159     4     1      0.08138      29.86500      27.43600     24.62200
  160     4     1      0.08138      28.16100      27.04000     24.73800
  161     5     2     -0.07430       9.05700      14.22400     36.01800
  162     5     2     -0.13155       9.24700      12.91700     35.16800
  163     5     2     -0.14965       7.54600      14.52600     36.19700
  164     5     2     -0.17824       6.71300      14.14400     34.96400
  165     5     2     -0.18246       6.75300      12.63000     34.69900
  166     5     2     -0.07352       9.91300      14.21300     37.33500
  167     5     2     -0.18251      11.41600      13.98300     36.97900
  168     5     2     -0.18303      11.68300      13.12800     35.73200
  169     5     2     -0.17963      10.54000      12.15000     35.48700
  170     5     2     -0.04692       9.75300      15.41600     38.35000
  171     5     2     -0.23845       8.41700      15.35600     39.12700
  172     5     2     -0.24031      10.84600      15.35500     39.44700
  173     5     2     -0.23703       9.87500      16.78400     37.64600
  174     5     2     -0.19490       8.03300      11.97100     35.24200
  175     5     1      0.09790       8.22500      11.04800     34.69400
  176     5     1      0.09790       7.87800      11.67700     36.28100
  177     5     1      0.10135       9.32600      13.23800     34.12700
  178     5     1      0.08618       9.45900      15.03600     35.41000
  179     5     1      0.08946       7.15800      13.98100     37.05800
  180     5     1      0.08946       7.39500      15.58600     36.38900
  181     5     1      0.07858       5.68000      14.47600     35.08200
  182     5     1      0.07858       7.10400      14.67900     34.09700
  183     5     1      0.09470       5.88600      12.14600     35.15400
  184     5     1      0.09470       6.66500      12.45400     33.62600
  185     5     1      0.08889       9.59800      13.31800     37.87300
  186     5     1      0.08705      11.90500      13.50300     37.82800
  187     5     1      0.08705      11.93000      14.93300     36.83600
  188     5     1      0.09160      11.79300      13.77400     34.85900
  189     5     1      0.09160      12.63000      12.59800     35.83700
  190     5     1      0.09701      10.78700      11.47800     34.66400
  191     5     1      0.09701      10.40900      11.52000     36.36800
  192     5     1      0.08313       7.55700      15.66700     38.54200
  193     5     1      0.08313       8.21700      14.35300     39.50800
  194     5     1      0.08313       8.42200      16.02600     39.98800
  195     5     1      0.08332      10.68900      16.10900     40.21900
  196     5     1      0.08332      11.84800      15.53900     39.05800
  197     5     1      0.08332      10.85800      14.38400     39.94400
  198     5     1      0.08138       9.09700      16.94000     36.90200
  199     5     1      0.08138       9.79800      17.60500     38.35900
  200     5     1      0.08138      10.83100      16.89500     37.13300
  201     6     2     -0.07430      35.41600      32.02400     37.56900
  202     6     2     -0.13155      34.20100      32.84800     38.12800
  203     6     2     -0.14965      35.00200      30.54200     37.36200
  204     6     2     -0.17824      34.01300      30.04800     38.42800
  205     6     2     -0.18246      32.68000      30.81100     38.36300
  206     6     2     -0.07352      36.09900      32.72100     36.33800
  207     6     2     -0.18251      36.53200      34.16900     36.73200
  208     6     2     -0.18303      35.65300      34.86600     37.78100
  209     6     2     -0.17963      34.22500      34.33400     37.73600
  210     6     2     -0.04692      37.27400      31.96400     35.59700
  211     6     2     -0.23845      36.76500      30.78100     34.74100
  212     6     2     -0.24031      37.97700      32.90500     34.58600
  213     6     2     -0.23703      38.34600      31.45800     36.58600
  214     6     2     -0.19490      32.83800      32.22300     37.77500
  215     6     1      0.09790      32.01900      32.85500     38.12300
  216     6     1      0.09790      32.74200      32.17900     36.68900
  217     6     1      0.10135      34.28500      32.81400     39.21700
  218     6     1      0.08618      36.16500      32.02100     38.36100
  219     6     1      0.08946      34.54300      30.41900     36.38100
  220     6     1      0.08946      35.87900      29.90000     37.39300
  221     6     1      0.07858      33.83600      28.97700     38.31800
  222     6     1      0.07858      34.46400      30.17900     39.41300
  223     6     1      0.09470      31.95800      30.25500     37.76000
  224     6     1      0.09470      32.25200      30.86600     39.36600
  225     6     1      0.08889      35.30300      32.84200     35.60100
  226     6     1      0.08705      36.53800      34.78700     35.83300
  227     6     1      0.08705      37.55400      34.17900     37.10800
  228     6     1      0.09160      36.06500      34.69800     38.77700
  229     6     1      0.09160      35.66800      35.94500     37.62500
  230     6     1      0.09701      33.58700      34.90700     38.40900
  231     6     1      0.09701      33.81900      34.47500     36.73300
  232     6     1      0.08313      36.49700      29.90500     35.32300
  233     6     1      0.08313      35.89800      31.06200     34.14200
  234     6     1      0.08313      37.52900      30.42900     34.04700
  235     6     1      0.08332      38.71800      32.37500     33.98500
  236     6     1      0.08332      38.52100      33.71700     35.06900
  237     6     1      0.08332      37.26300      33.35100     33.89400
  238     6     1      0.08138      37.94900      30.73400     37.29400
  239     6     1      0.08138      39.16800      30.96900     36.06200
  240     6     1      0.08138      38.77800      32.27000     37.17000
  241     7     2     -0.07430       4.83900      19.18600     35.91000
  242     7     2     -0.13155       6.03900      19.61400     36.82800
  243     7     2     -0.14965       5.36900      18.44400     34.65400
  244     7     2     -0.17824       6.70900      19.00400     34.15500
  245     7     2     -0.18246       7.82800      18.81100     35.19300
  246     7     2     -0.07352       3.70300      18.45200     36.70900
  247     7     2     -0.18251       3.22000      19.36100     37.88300
  248     7     2     -0.18303       4.28200      20.29000     38.48800
  249     7     2     -0.17963       5.67900      19.70400     38.32000
  250     7     2     -0.04692       2.47100      17.86800     35.90700
  251     7     2     -0.23845       2.83900      16.59400     35.11000
  252     7     2     -0.24031       1.35300      17.41200     36.87800
  253     7     2     -0.23703       1.86000      18.91200     34.94900
  254     7     2     -0.19490       7.28900      18.73600     36.63200
  255     7     1      0.09790       8.07800      19.02000     37.32900
  256     7     1      0.09790       7.03400      17.70200     36.87100
  257     7     1      0.10135       6.31800      20.62300     36.51600
  258     7     1      0.08618       4.39400      20.11400     35.54800
  259     7     1      0.08946       5.49900      17.38500     34.87700
  260     7     1      0.08946       4.65000      18.51900     33.84200
  261     7     1      0.07858       6.99100      18.53800     33.21000
  262     7     1      0.07858       6.58700      20.06800     33.94100
  263     7     1      0.09470       8.38700      17.89800     34.97600
  264     7     1      0.09470       8.54400      19.62900     35.10000
  265     7     1      0.08889       4.19200      17.59800     37.18000
  266     7     1      0.08705       2.83600      18.72400     38.68100
  267     7     1      0.08705       2.38400      19.98600     37.57100
  268     7     1      0.09160       4.24300      21.26400     37.99800
  269     7     1      0.09160       4.06500      20.47300     39.54100
  270     7     1      0.09701       6.41300      20.31800     38.84400
  271     7     1      0.09701       5.71500      18.71800     38.78600
  272     7     1      0.08313       3.40200      16.79300     34.20400
  273     7     1      0.08313       3.41700      15.89400     35.71500
  274     7     1      0.08313       1.95000      16.06100     34.77200
  275     7     1      0.08332       0.54200      16.90600     36.35400
  276     7     1      0.08332       0.88500      18.24300     37.40600
  277     7     1      0.08332       1.73500      16.71800     37.62700
  278     7     1      0.08138       2.56200      19.23800     34.18500
  279     7     1      0.08138       0.99100      18.51000     34.42700
  280     7     1      0.08138       1.52900      19.80600     35.47800
  281     8     2     -0.07430      31.24700      20.34700     12.63200
  282     8     2     -0.13155      31.71200      18.89400     13.00500
  283     8     2     -0.14965      31.29800      21.25900     13.88600
  284     8     2     -0.17824      30.92700      20.51600     15.17700
  285     8     2     -0.18246      31.93200      19.39800     15.49900
  286     8     2     -0.07352      31.97300      20.90000     11.35300
  287     8     2     -0.18251      31.75600      19.91400     10.16200
  288     8     2     -0.18303      31.61500      18.43200     10.54000
  289     8     2     -0.17963      32.35400      18.12800     11.83800
  290     8     2     -0.04692      31.68800      22.39100     10.90800
  291     8     2     -0.23845      32.37100      23.42300     11.83600
  292     8     2     -0.24031      32.28900      22.66700      9.50700
  293     8     2     -0.23703      30.17500      22.69100     10.83400
  294     8     2     -0.19490      32.63100      18.85600     14.24000
  295     8     1      0.09790      32.98500      17.84200     14.43100
  296     8     1      0.09790      33.52300      19.45100     14.03400
  297     8     1      0.10135      30.80800      18.34300     13.27600
  298     8     1      0.08618      30.19300      20.26300     12.36100
  299     8     1      0.08946      32.30000      21.67400     14.00300
  300     8     1      0.08946      30.61300      22.09600     13.77000
  301     8     1      0.07858      30.86100      21.21200     16.01500
  302     8     1      0.07858      29.92900      20.08900     15.06200
  303     8     1      0.09470      32.69000      19.76300     16.19500
  304     8     1      0.09470      31.41300      18.59000     16.01800
  305     8     1      0.08889      33.03800      20.85000     11.58600
  306     8     1      0.08705      32.59800      20.00700      9.47500
  307     8     1      0.08705      30.87100      20.18700      9.58900
  308     8     1      0.09160      30.56000      18.18200     10.66300
  309     8     1      0.09160      31.98200      17.80200      9.73000
  310     8     1      0.09701      32.33700      17.05600     12.04100
  311     8     1      0.09701      33.40500      18.40100     11.72800
  312     8     1      0.08313      31.86600      23.55500     12.78800
  313     8     1      0.08313      33.40800      23.15400     12.04200
  314     8     1      0.08313      32.38500      24.41800     11.39000
  315     8     1      0.08332      32.20100      23.71700      9.22700
  316     8     1      0.08332      31.78900      22.11100      8.71400
  317     8     1      0.08332      33.34900      22.41300      9.47100
  318     8     1      0.08138      29.68300      22.58700     11.79900
  319     8     1      0.08138      29.99000      23.71000     10.49300
  320     8     1      0.08138      29.66100      22.02400     10.14200
  321     9     2     -0.07430       6.37400      16.93100     13.25300
  322     9     2     -0.13155       5.66500      18.31600     13.46400
  323     9     2     -0.14965       7.80000      16.96500     13.86400
  324     9     2     -0.17824       8.47600      18.33600     13.71800
  325     9     2     -0.18246       7.72000      19.42700     14.49500
  326     9     2     -0.07352       5.47100      15.72100     13.68900
  327     9     2     -0.18251       4.11100      15.78300     12.92500
  328     9     2     -0.18303       3.61000      17.19000     12.56700
  329     9     2     -0.17963       4.13400      18.22300     13.55700
  330     9     2     -0.04692       6.08300      14.26400     13.63200
  331     9     2     -0.23845       7.10400      14.00900     14.76600
  332     9     2     -0.24031       4.97900      13.19900     13.85500
  333     9     2     -0.23703       6.74600      13.96900     12.27000
  334     9     2     -0.19490       6.22700      19.10100     14.66500
  335     9     1      0.09790       5.67000      20.02600     14.82100
  336     9     1      0.09790       6.08500      18.50900     15.57100
  337     9     1      0.10135       5.88500      18.91200     12.57500
  338     9     1      0.08618       6.50900      16.82600     12.17500
  339     9     1      0.08946       7.75500      16.71300     14.92400
  340     9     1      0.08946       8.43300      16.22400     13.38100
  341     9     1      0.07858       9.51300      18.28900     14.05300
  342     9     1      0.07858       8.51300      18.59800     12.66000
  343     9     1      0.09470       8.16800      19.56400     15.48100
  344     9     1      0.09470       7.84100      20.38100     13.97700
  345     9     1      0.08889       5.23000      15.90900     14.73600
  346     9     1      0.08705       3.34700      15.29800     13.53500
  347     9     1      0.08705       4.16000      15.21200     11.99900
  348     9     1      0.09160       3.94400      17.45600     11.56300
  349     9     1      0.09160       2.52000      17.20300     12.53600
  350     9     1      0.09701       3.68800      19.19900     13.35700
  351     9     1      0.09701       3.82400      17.94600     14.56600
  352     9     1      0.08313       8.06800      14.47700     14.59700
  353     9     1      0.08313       6.72900      14.35500     15.73100
  354     9     1      0.08313       7.32700      12.94700     14.87600
  355     9     1      0.08332       5.39300      12.19400     13.93000
  356     9     1      0.08332       4.25900      13.15800     13.03700
  357     9     1      0.08332       4.42400      13.38700     14.77500
  358     9     1      0.08138       7.58300      14.63300     12.06400
  359     9     1      0.08138       7.13300      12.95100     12.23000
  360     9     1      0.08138       6.04400      14.07700     11.44300
  361    10     2     -0.07430      46.48900      37.56500     18.29500
  362    10     2     -0.13155      46.79100      37.49100     16.75600
  363    10     2     -0.14965      46.16900      36.14900     18.84200
  364    10     2     -0.17824      45.40500      35.28000     17.83200
  365    10     2     -0.18246      46.24300      35.00400     16.57300
  366    10     2     -0.07352      47.58300      38.37100     19.08400
  367    10     2     -0.18251      47.72600      39.79800     18.46700
  368    10     2     -0.18303      47.44900      39.90400     16.96000
  369    10     2     -0.17963      47.74800      38.58600     16.25700
  370    10     2     -0.04692      47.47500      38.44800     20.66000
  371    10     2     -0.23845      47.85800      37.11400     21.34200
  372    10     2     -0.24031      48.48300      39.48000     21.22700
  373    10     2     -0.23703      46.06400      38.87300     21.12100
  374    10     2     -0.19490      47.28600      36.10300     16.30700
  375    10     1      0.09790      47.54600      36.10700     15.24800
  376    10     1      0.09790      48.20800      35.86800     16.84200
  377    10     1      0.10135      45.83900      37.65900     16.24900
  378    10     1      0.08618      45.56900      38.14200     18.39200
  379    10     1      0.08946      47.09300      35.63600     19.10900
  380    10     1      0.08946      45.56700      36.22200     19.74500
  381    10     1      0.07858      45.09800      34.33900     18.29000
  382    10     1      0.07858      44.48400      35.79400     17.55300
  383    10     1      0.09470      46.75600      34.04400     16.66600
  384    10     1      0.09470      45.57500      34.90300     15.71600
  385    10     1      0.08889      48.52400      37.86200     18.86800
  386    10     1      0.08705      48.74000      40.15700     18.64900
  387    10     1      0.08705      47.06500      40.50500     18.96700
  388    10     1      0.09160      46.40300      40.16800     16.79500
  389    10     1      0.09160      48.03700      40.71400     16.52700
  390    10     1      0.09701      47.65000      38.70200     15.17700
  391    10     1      0.09701      48.78600      38.30500     16.44200
  392    10     1      0.08313      47.08700      36.35200     21.27400
  393    10     1      0.08313      48.77700      36.69800     20.92600
  394    10     1      0.08313      48.02600      37.24300     22.41200
  395    10     1      0.08332      48.50300      39.47100     22.31700
  396    10     1      0.08332      48.24100      40.50600     20.94900
  397    10     1      0.08332      49.49700      39.27500     20.88500
  398    10     1      0.08138      45.29800      38.16100     20.82200
  399    10     1      0.08138      46.01100      38.95700     22.20700
  400    10     1      0.08138      45.77600      39.84100     20.71100
  401    11     2     -0.07430      19.22500      28.38600     45.40000
  402    11     2     -0.13155      19.49400      27.26200     44.33700
  403    11     2     -0.14965      20.19500      28.22500     46.60100
  404    11     2     -0.17824      20.50000      26.75500     46.92500
  405    11     2     -0.18246      21.23400      26.05900     45.76700