LAMMPS data file of the system for full atom style

    4972 atoms
    5198 bonds
   10848 angles
   18306 dihedrals

    2 atom types
    2 bond types
    3 angle types
    2 dihedral types

    0.000000    50.000000 xlo xhi
    0.000000    50.000000 ylo yhi
    0.000000    50.000000 zlo zhi

 Masses 

    1       1.0080
    2      12.0110

 Pair Coeffs 

    1       0.0300       2.5000
    2       0.0660       3.5000

 Bond Coeffs 

    1     268.0000        1.5290
    2     340.0000        1.0900

 Angle Coeffs 

    1      33.0000      107.8000
    2      37.5000      110.7000
    3      58.3500      112.7000

 Dihedral Coeffs 

    1       0.0000        0.0000       0.3000        0.0000
    2       0.8500       -0.2000       0.2000        0.0000

 Atoms 

    1     1     2     -0.09976      43.40400       8.99900     26.24000
    2     1     2     -0.18758      42.31500       7.94800     25.92600
    3     1     2     -0.08796      43.30100      10.17000     25.22300
    4     1     2     -0.17120      41.88800      10.78600     25.23700
    5     1     2     -0.17639      40.81400       9.73400     24.91900
    6     1     2     -0.19151      40.89400       8.54200     25.88200
    7     1     2     -0.16514      44.39100      11.27000     25.26600
    8     1     2     -0.16409      45.85900      10.84100     25.47200
    9     1     2     -0.10342      46.29800      10.21900     26.83100
   10     1     2     -0.18147      47.83600      10.28600     26.98400
   11     1     2     -0.18277      48.34700      11.68900     27.35600
   12     1     2     -0.18082      47.63900      12.23200     28.60600
   13     1     2     -0.16964      46.11100      12.17600     28.45200
   14     1     2     -0.08700      45.62800      10.75000     28.12800
   15     1     2     -0.16562      44.08600      10.64000     28.24800
   16     1     2     -0.16473      43.40300       9.34700     27.75800
   17     1     1      0.08783      42.35700       7.13200     26.65000
   18     1     1      0.08783      42.53100       7.49200     24.95900
   19     1     1      0.09549      44.33100       8.47800     26.01800
   20     1     1      0.09162      43.42300       9.70600     24.24200
   21     1     1      0.08296      41.69000      11.23400     26.21100
   22     1     1      0.08296      41.82500      11.59500     24.50900
   23     1     1      0.09210      40.93900       9.38400     23.89200
   24     1     1      0.09210      39.82200      10.18700     24.96600
   25     1     1      0.09792      40.58300       8.85600     26.87800
   26     1     1      0.09792      40.18200       7.77300     25.57900
   27     1     1      0.08360      44.35100      11.77800     24.30200
   28     1     1      0.08360      44.14200      12.07000     25.95600
   29     1     1      0.08348      46.14100      10.15800     24.67000
   30     1     1      0.08348      46.45300      11.73700     25.29600
   31     1     1      0.09447      46.09400       9.15300     26.79000
   32     1     1      0.08843      48.14600       9.58500     27.76000
   33     1     1      0.08843      48.32100       9.94100     26.06800
   34     1     1      0.09750      49.42500      11.65700     27.52800
   35     1     1      0.09750      48.20100      12.38000     26.52600
   36     1     1      0.09112      47.95800      13.25700     28.80100
   37     1     1      0.09112      47.93800      11.64700     29.47800
   38     1     1      0.08168      45.64500      12.53100     29.37200
   39     1     1      0.08168      45.79400      12.86200     27.66500
   40     1     1      0.09118      46.00800      10.10900     28.92700
   41     1     1      0.08310      43.57900      11.50500     27.83300
   42     1     1      0.08310      43.85700      10.72700     29.31100
   43     1     1      0.08346      43.81700       8.50100     28.30800
   44     1     1      0.08346      42.37000       9.41700     28.09400
   45     2     2     -0.09976      14.33000      17.28500      3.76500
   46     2     2     -0.18758      15.87400      17.20700      3.79700
   47     2     2     -0.08796      13.75000      15.88800      3.41000
   48     2     2     -0.17120      14.25100      14.81800      4.39900
   49     2     2     -0.17639      15.78600      14.74500      4.41900
   50     2     2     -0.19151      16.40800      16.11200      4.73900
   51     2     2     -0.16514      12.22100      15.77000      3.18500
   52     2     2     -0.16409      11.50800      16.88600      2.39200
   53     2     2     -0.10342      11.40500      18.31800      2.99800
   54     2     2     -0.18147      10.29900      19.12800      2.28200
   55     2     2     -0.18277       8.87800      18.73800      2.72900
   56     2     2     -0.18082       8.72700      18.81500      4.25400
   57     2     2     -0.16964       9.81900      18.00100      4.96700
   58     2     2     -0.08700      11.22900      18.44900      4.53600
   59     2     2     -0.16562      12.31700      17.83100      5.45000
   60     2     2     -0.16473      13.79600      17.99600      5.04400
   61     2     1      0.08783      16.29700      18.17600      4.07300
   62     2     1      0.08783      16.24000      17.00700      2.78800
   63     2     1      0.09549      14.12600      17.93000      2.91600
   64     2     1      0.09162      14.18700      15.63700      2.44000
   65     2     1      0.08296      13.87800      15.03700      5.40000
   66     2     1      0.08296      13.84900      13.84100      4.13000
   67     2     1      0.09210      16.14700      14.39700      3.44900
   68     2     1      0.09210      16.11500      14.00500      5.14900
   69     2     1      0.09792      16.20200      16.37200      5.77700
   70     2     1      0.09792      17.49400      16.05200      4.65900
   71     2     1      0.08360      12.06500      14.84700      2.62500
   72     2     1      0.08360      11.68400      15.57300      4.10600
   73     2     1      0.08348      11.96100      16.95900      1.40400
   74     2     1      0.08348      10.50000      16.51600      2.21000
   75     2     1      0.09447      12.31500      18.85300      2.74300
   76     2     1      0.08843      10.44900      20.18900      2.48700
   77     2     1      0.08843      10.39400      19.02200      1.20000
   78     2     1      0.09750       8.14700      19.39400      2.25200
   79     2     1      0.09750       8.63600      17.73100      2.38900
   80     2     1      0.09112       7.74000      18.45600      4.55100
   81     2     1      0.09112       8.78200      19.85700      4.57500
   82     2     1      0.08168       9.70300      18.11400      6.04500
   83     2     1      0.08168       9.68700      16.94000      4.75400
   84     2     1      0.09118      11.28400      19.52100      4.73700
   85     2     1      0.08310      12.11300      16.79100      5.68500
   86     2     1      0.08310      12.20800      18.31200      6.42200
   87     2     1      0.08346      14.02300      19.06000      4.97000
   88     2     1      0.08346      14.37400      17.64700      5.89800
   89     3     2     -0.09976      11.60500      16.74300     47.80100
   90     3     2     -0.18758      12.88300      17.15700     48.56700
   91     3     2     -0.08796      11.15400      17.91000     46.88000
   92     3     2     -0.17120      12.28900      18.32300     45.92200
   93     3     2     -0.17639      13.55300      18.73700     46.69300
   94     3     2     -0.19151      14.02100      17.62400     47.64000
   95     3     2     -0.16514       9.81000      17.76400     46.12300
   96     3     2     -0.16409       8.60800      17.15400     46.87500
   97     3     2     -0.10342       8.64200      15.65500     47.29800
   98     3     2     -0.18147       7.21500      15.14900     47.61200
   99     3     2     -0.18277       6.38100      14.86700     46.34900
  100     3     2     -0.18082       7.11300      13.91400     45.39400
  101     3     2     -0.16964       8.52800      14.42000     45.07200
  102     3     2     -0.08700       9.35200      14.64500     46.35500
  103     3     2     -0.16562      10.84700      14.88300     46.02500
  104     3     2     -0.16473      11.78600      15.33500     47.16200
  105     3     1      0.08783      13.22800      16.33600     49.19900
  106     3     1      0.08783      12.63700      17.97000     49.25200
  107     3     1      0.09549      10.85600      16.66000     48.58300
  108     3     1      0.09162      10.99600      18.75800     47.55000
  109     3     1      0.08296      12.52100      17.49900     45.24700
  110     3     1      0.08296      11.96500      19.15200     45.29200
  111     3     1      0.09210      13.34800      19.64400     47.26600
  112     3     1      0.09210      14.35000      18.99300     45.99300
  113     3     1      0.09792      14.40300      16.78600     47.05700
  114     3     1      0.09792      14.86300      17.97700     48.23700
  115     3     1      0.08360       9.51100      18.77200     45.83200
  116     3     1      0.08360       9.92900      17.27400     45.16200
  117     3     1      0.08348       8.40100      17.75900     47.75700
  118     3     1      0.08348       7.74800      17.30700     46.22400
  119     3     1      0.09447       9.14900      15.59200     48.25700
  120     3     1      0.08843       7.28500      14.23000     48.19500
  121     3     1      0.08843       6.69400      15.86300     48.25300
  122     3     1      0.09750       5.41600      14.44000     46.63000
  123     3     1      0.09750       6.15200      15.79800     45.82900
  124     3     1      0.09112       6.54000      13.79500     44.47300
  125     3     1      0.09112       7.17500      12.92200     45.84500
  126     3     1      0.08168       9.02800      13.69800     44.42600
  127     3     1      0.08168       8.46800      15.34900     44.50400
  128     3     1      0.09118       9.34200      13.69600     46.89500
  129     3     1      0.08310      10.98000      15.52600     45.16000
  130     3     1      0.08310      11.23500      13.93000     45.66400
  131     3     1      0.08346      11.76000      14.58700     47.95600
  132     3     1      0.08346      12.79300      15.27000     46.75300
  133     4     2     -0.09976      33.97000      44.46200     18.48000
  134     4     2     -0.18758      35.47400      44.82100     18.45900
  135     4     2     -0.08796      33.80400      42.92300     18.34000
  136     4     2     -0.17120      34.58500      42.18400     19.44400
  137     4     2     -0.17639      36.07900      42.54400     19.41200
  138     4     2     -0.19151      36.29300      44.06000     19.51900
  139     4     2     -0.16514      32.36900      42.35600     18.19500
  140     4     2     -0.16409      31.37100      43.10700     17.28900
  141     4     2     -0.10342      30.87200      44.52400     17.69900
  142     4     2     -0.18147      29.58200      44.88700     16.92600
  143     4     2     -0.18277      28.32700      44.18500     17.47800
  144     4     2     -0.18082      28.16200      44.43100     18.98400
  145     4     2     -0.16964      29.43900      44.06100     19.75500
  146     4     2     -0.08700      30.66700      44.81700     19.21100
  147     4     2     -0.16562      31.88500      44.66000     20.15500
  148     4     2     -0.16473      33.25900      45.16900     19.67100
  149     4     1      0.08783      35.60800      45.89700     18.58500
  150     4     1      0.08783      35.88000      44.58900     17.47400
  151     4     1      0.09549      33.59200      44.89900     17.56000
  152     4     1      0.09162      34.29200      42.67000     17.39700
  153     4     1      0.08296      34.16700      42.43000     20.42100
  154     4     1      0.08296      34.47300      41.10600     19.32500
  155     4     1      0.09210      36.52200      42.17700     18.48400
  156     4     1      0.09210      36.60400      42.03400     20.22100
  157     4     1      0.09792      36.02400      44.39600     20.52000
  158     4     1      0.09792      37.35300      44.29300     19.40400
  159     4     1      0.08360      32.47700      41.35600     17.77200
  160     4     1      0.08360      31.90900      42.14900     19.15600
  161     4     1      0.08348      31.78500      43.16300     16.28200
  162     4     1      0.08348      30.50700      42.45000     17.19900
  163     4     1      0.09447      31.59500      45.24900     17.33800
  164     4     1      0.08843      29.42900      45.96500     16.97900
  165     4     1      0.08843      29.70200      44.66000     15.86500
  166     4     1      0.09750      27.44200      44.53900     16.94600
  167     4     1      0.09750      28.37700      43.11300     17.28800
  168     4     1      0.09112      27.31600      43.85800     19.36600
  169     4     1      0.09112      27.92400      45.48200     19.15900
  170     4     1      0.08168      29.29700      44.28800     20.81200
  171     4     1      0.08168      29.61000      42.98600     19.69300
  172     4     1      0.09118      30.41900      45.88000     19.26300
  173     4     1      0.08310      31.98200      43.64800     20.53700
  174     4     1      0.08310      31.64700      45.22400     21.05800
  175     4     1      0.08346      33.17800      46.23400     19.44600
  176     4     1      0.08346      33.91200      45.11800     20.54100
  177     5     2     -0.09976      34.78100      12.92500     26.41700
  178     5     2     -0.18758      34.26600      11.56400     26.93900
  179     5     2     -0.08796      34.18400      14.06900     27.28200
  180     5     2     -0.17120      34.51700      13.86200     28.77300
  181     5     2     -0.17639      33.99600      12.50900     29.28200
  182     5     2     -0.19151      34.53800      11.34600     28.43900
  183     5     2     -0.16514      34.45700      15.53100     26.84600
  184     5     2     -0.16409      34.38400      15.87400     25.34300
  185     5     2     -0.10342      35.44200      15.28300     24.36400
  186     5     2     -0.18147      35.46300      16.08700     23.04300
  187     5     2     -0.18277      36.19600      17.43500     23.16600
  188     5     2     -0.18082      37.61200      17.25600     23.73100
  189     5     2     -0.16964      37.59200      16.46700     25.05000
  190     5     2     -0.08700      36.89600      15.10300     24.88100
  191     5     2     -0.16562      37.12100      14.20200     26.12200
  192     5     2     -0.16473      36.32600      12.88400     26.22600
  193     5     1      0.08783      34.70000      10.74700     26.35800
  194     5     1      0.08783      33.19000      11.50400     26.76800
  195     5     1      0.09549      34.32600      13.01000     25.43500
  196     5     1      0.09162      33.10100      13.95800     27.19200
  197     5     1      0.08296      35.59500      13.92300     28.92300
  198     5     1      0.08296      34.07900      14.66200     29.37000
  199     5     1      0.09210      32.90400      12.50400     29.25200
  200     5     1      0.09210      34.27200      12.37200     30.32900
  201     5     1      0.09792      35.60700      11.23400     28.61800
  202     5     1      0.09792      34.08400      10.40900     28.76500
  203     5     1      0.08360      33.70100      16.14300     27.33900
  204     5     1      0.08360      35.37800      15.92100     27.26800
  205     5     1      0.08348      33.39000      15.62200     24.97400
  206     5     1      0.08348      34.43400      16.96100     25.28900
  207     5     1      0.09447      35.09800      14.30000     24.05700
  208     5     1      0.08843      35.95700      15.49100     22.27400
  209     5     1      0.08843      34.44500      16.24500     22.68100
  210     5     1      0.09750      36.24700      17.91900     22.18800
  211     5     1      0.09750      35.63300      18.11700     23.80300
  212     5     1      0.09112      38.07900      18.23000     23.88600
  213     5     1      0.09112      38.23300      16.73100     23.00300
  214     5     1      0.08168      38.61600      16.32500     25.39800
  215     5     1      0.08168      37.08400      17.04800     25.82100
  216     5     1      0.09118      37.42200      14.58800     24.07500
  217     5     1      0.08310      37.03800      14.75600     27.05300
  218     5     1      0.08310      38.17600      13.92700     26.11200
  219     5     1      0.08346      36.55200      12.26900     25.35300
  220     5     1      0.08346      36.76300      12.34500     27.06500
  221     6     2     -0.09976      22.62700      30.37000      7.11100
  222     6     2     -0.18758      22.35800      31.65100      7.93400
  223     6     2     -0.08796      23.59400      29.44300      7.89900
  224     6     2     -0.17120      23.02800      29.12100      9.29600
  225     6     2     -0.17639      22.76900      30.40000     10.10700
  226     6     2     -0.19151      21.83900      31.36200      9.35500
  227     6     2     -0.16514      24.11200      28.16300      7.19600
  228     6     2     -0.16409      24.51900      28.25600      5.71100
  229     6     2     -0.10342      23.43300      28.52600      4.62800
  230     6     2     -0.18147      23.95800      28.13700      3.22600
  231     6     2     -0.18277      23.95600      26.61700      2.98000
  232     6     2     -0.18082      22.57300      26.00600      3.24500
  233     6     2     -0.16964      22.05400      26.38400      4.64200
  234     6     2     -0.08700      22.02200      27.91200      4.83900
  235     6     2     -0.16562      21.24500      28.29500      6.12500
  236     6     2     -0.16473      21.28800      29.76200      6.59800
  237     6     1      0.08783      21.65800      32.30000      7.40400
  238     6     1      0.08783      23.28400      32.22300      8.01200
  239     6     1      0.09549      23.18000      30.73200      6.25000
  240     6     1      0.09162      24.49200      30.04400      8.06400
  241     6     1      0.08296      22.10300      28.55100      9.19800
  242     6     1      0.08296      23.72300      28.48300      9.84400
  243     6     1      0.09210      23.71800      30.89800     10.31500
  244     6     1      0.09210      22.33900      30.14700     11.07700
  245     6     1      0.09792      20.83500      30.94000      9.31300
  246     6     1      0.09792      21.74400      32.29500      9.91100
  247     6     1      0.08360      25.00500      27.85500      7.74200
  248     6     1      0.08360      23.45000      27.31600      7.34400
  249     6     1      0.08348      25.30500      29.00400      5.60800
  250     6     1      0.08348      25.00500      27.30800      5.48100
  251     6     1      0.09447      23.29500      29.60100      4.55600
  252     6     1      0.08843      23.33400      28.61300      2.46900
  253     6     1      0.08843      24.96200      28.53900      3.07400
  254     6     1      0.09750      24.26000      26.40900      1.95200
  255     6     1      0.09750      24.69700      26.12800      3.61200
  256     6     1      0.09112      22.61700      24.92100      3.14400
  257     6     1      0.09112      21.86700      26.35600      2.48900
  258     6     1      0.08168      21.05500      25.96700      4.77800
  259     6     1      0.08168      22.68200      25.92500      5.40700
  260     6     1      0.09118      21.41300      28.31200      4.02600
  261     6     1      0.08310      21.47300      27.63300      6.95500
  262     6     1      0.08310      20.19700      28.06400      5.92800
  263     6     1      0.08346      20.90100      30.39900      5.80100
  264     6     1      0.08346      20.55000      29.83400      7.39500
  265     7     2     -0.09976      39.88600      37.57000      2.25500
  266     7     2     -0.18758      40.93500      36.45700      2.02800
  267     7     2     -0.08796      38.50500      36.92600      2.55600
  268     7     2     -0.17120      38.59700      35.96900      3.76100
  269     7     2     -0.17639      39.63800      34.86400      3.52400
  270     7     2     -0.19151      41.01600      35.45400      3.19400
  271     7     2     -0.16514      37.27500      37.86100      2.67600
  272     7     2     -0.16409      37.13800      39.02500      1.67200
  273     7     2     -0.10342      38.15700      40.20200      1.71200
  274     7     2     -0.18147      37.59000      41.43200      0.96400
  275     7     2     -0.18277      36.53200      42.20000      1.77600
  276     7     2     -0.18082      37.06100      42.58800      3.16400
  277     7     2     -0.16964      37.61400      41.36500      3.91300
  278     7     2     -0.08700      38.70500      40.64800      3.09500
  279     7     2     -0.16562      39.45100      39.59600      3.95600
  280     7     2     -0.16473      40.43000      38.63400      3.25400
  281     7     1      0.08783      41.91800      36.89500      1.84300
  282     7     1      0.08783      40.68200      35.91200      1.11800
  283     7     1      0.09549      39.80100      38.04100      1.28000
  284     7     1      0.09162      38.28700      36.30200      1.68600
  285     7     1      0.08296      38.85200      36.53100      4.66000
  286     7     1      0.08296      37.62500      35.51200      3.95200
  287     7     1      0.09210      39.30800      34.22400      2.70300
  288     7     1      0.09210      39.70700      34.22100      4.40300
  289     7     1      0.09792      41.42800      35.93500      4.08100
  290     7     1      0.09792      41.71100      34.65100      2.94400
  291     7     1      0.08360      36.39600      37.22900      2.53800
  292     7     1      0.08360      37.13500      38.22900      3.68700
  293     7     1      0.08348      37.11800      38.61600      0.66200
  294     7     1      0.08348      36.13800      39.42900      1.82900
  295     7     1      0.09447      39.01800      39.91700      1.11400
  296     7     1      0.08843      38.41000      42.11200      0.72900
  297     7     1      0.08843      37.17600      41.12900      0.00000
  298     7     1      0.09750      36.22800      43.09800      1.23300
  299     7     1      0.09750      35.62800      41.60100      1.88500
  300     7     1      0.09112      36.26800      43.05600      3.74900
  301     7     1      0.09112      37.84800      43.33700      3.06000
  302     7     1      0.08168      38.01600      41.68600      4.87500
  303     7     1      0.08168      36.80300      40.67000      4.13800
  304     7     1      0.09118      39.46400      41.40100      2.87100
  305     7     1      0.08310      38.77500      39.03400      4.59300
  306     7     1      0.08310      40.03800      40.15900      4.68400
  307     7     1      0.08346      41.19900      39.22200      2.75000
  308     7     1      0.08346      40.95600      38.11700      4.05400
  309     8     2     -0.09976      15.51200      37.32700      7.76700
  310     8     2     -0.18758      16.70900      37.59700      8.70600
  311     8     2     -0.08796      15.68700      35.93700      7.09300
  312     8     2     -0.17120      15.84700      34.83000      8.15300
  313     8     2     -0.17639      17.04300      35.10600      9.07800
  314     8     2     -0.19151      16.92800      36.48300      9.74700
  315     8     2     -0.16514      14.66900      35.52400      6.00100
  316     8     2     -0.16409      14.22100      36.58600      4.97500
  317     8     2     -0.10342      13.36800      37.80100      5.44500
  318     8     2     -0.18147      12.66600      38.46800      4.23800
  319     8     2     -0.18277      11.43900      37.68200      3.74100
  320     8     2     -0.18082      10.44700      37.40900      4.88100
  321     8     2     -0.16964      11.14000      36.73700      6.07700
  322     8     2     -0.08700      12.33300      37.57200      6.58100
  323     8     2     -0.16562      12.85100      37.04400      7.94300
  324     8     2     -0.16473      14.16900      37.62000      8.49900
  325     8     1      0.08783      16.58700      38.55900      9.20900
  326     8     1      0.08783      17.61500      37.69500      8.10600
  327     8     1      0.09549      15.63200      38.06800      6.98200
  328     8     1      0.09162      16.64100      35.99600      6.56500
  329     8     1      0.08296      14.93400      34.74900      8.74300
  330     8     1      0.08296      15.98500      33.86300      7.66800
  331     8     1      0.09210      17.96900      35.05500      8.50200
  332     8     1      0.09210      17.11500      34.32600      9.83800
  333     8     1      0.09792      16.11100      36.47100     10.46800
  334     8     1      0.09792      17.83000      36.68900     10.32600
  335     8     1      0.08360      15.14100      34.72400      5.43000
  336     8     1      0.08360      13.79900      35.02500      6.41700
  337     8     1      0.08348      15.10000      36.96100      4.45100
  338     8     1      0.08348      13.65700      36.04200      4.21800
  339     8     1      0.09447      14.04900      38.57000      5.79700
  340     8     1      0.08843      12.34500      39.47000      4.52400
  341     8     1      0.08843      13.37600      38.61000      3.42100
  342     8     1      0.09750      10.94200      38.23800      2.94400
  343     8     1      0.09750      11.74800      36.73700      3.29400
  344     8     1      0.09112       9.63000      36.78200      4.52200
  345     8     1      0.09112       9.99400      38.34800      5.20400
  346     8     1      0.08168      10.41500      36.59700      6.87900
  347     8     1      0.08168      11.48000      35.74000      5.79500
  348     8     1      0.09118      11.93700      38.56400      6.80900
  349     8     1      0.08310      12.87900      35.95900      7.97900
  350     8     1      0.08310      12.07700      37.27800      8.67500
  351     8     1      0.08346      14.06200      38.70000      8.60800
  352     8     1      0.08346      14.24400      37.24500      9.51900
  353     9     2     -0.09976      10.01900      36.21800     27.88300
  354     9     2     -0.18758       8.57900      35.85300     27.45400
  355     9     2     -0.08796      10.08500      37.72900     28.23900
  356     9     2     -0.17120       9.05300      38.08100     29.33000
  357     9     2     -0.17639       7.62600      37.71900     28.89100
  358     9     2     -0.19151       7.51800      36.23800     28.50100
  359     9     2     -0.16514      11.47100      38.34200     28.56200
  360     9     2     -0.16409      12.67800      37.92200     27.69700
  361     9     2     -0.10342      13.20400      36.45700     27.76400
  362     9     2     -0.18147      14.64000      36.37200     27.19700
  363     9     2     -0.18277      15.70900      36.89700     28.17300
  364     9     2     -0.18082      15.60800      36.20700     29.54100
  365     9     2     -0.16964      14.18400      36.30000     30.11100
  366     9     2     -0.08700      13.14400      35.72100     29.13100
  367     9     2     -0.16562      11.76200      35.56000     29.81200
  368     9     2     -0.16473      10.54900      35.19500     28.93200
  369     9     1      0.08783       8.51100      34.78700     27.22700
  370     9     1      0.08783       8.34800      36.36600     26.51900
  371     9     1      0.09549      10.59600      36.08900     26.97200
  372     9     1      0.09162       9.76300      38.24800     27.33400
  373     9     1      0.08296       9.30000      37.55800     30.25400
  374     9     1      0.08296       9.09900      39.14600     29.55900
  375     9     1      0.09210       7.33700      38.34300     28.04200
  376     9     1      0.09210       6.92000      37.94800     29.69100
  377     9     1      0.09792       7.62000      35.61900     29.39100
  378     9     1      0.09792       6.52000      36.03100     28.11000
  379     9     1      0.08360      11.36400      39.42000     28.43900
  380     9     1      0.08360      11.72500      38.25500     29.61400
  381     9     1      0.08348      12.46600      38.16700     26.65600
  382     9     1      0.08348      13.48900      38.59100     27.98200
  383     9     1      0.09447      12.62100      35.86200     27.06700
  384     9     1      0.08843      14.86600      35.33200     26.96000
  385     9     1      0.08843      14.70400      36.90900     26.24800
  386     9     1      0.09750      16.70400      36.73900     27.75200
  387     9     1      0.09750      15.61000      37.97500     28.30100
  388     9     1      0.09112      16.31900      36.65300     30.23800
  389     9     1      0.09112      15.89300      35.15800     29.44300
  390     9     1      0.08168      14.14200      35.76500     31.06000
  391     9     1      0.08168      13.94200      37.33900     30.33500
  392     9     1      0.09118      13.46200      34.69900     28.91700
  393     9     1      0.08310      11.51500      36.40600     30.44700
  394     9     1      0.08310      11.87100      34.75200     30.53700
  395     9     1      0.08346      10.75500      34.25200     28.42400
  396     9     1      0.08346       9.74200      34.96600     29.62700
  397    10     2     -0.09976      39.16000      18.49300     28.65100
  398    10     2     -0.18758      40.42300      17.74000     28.17200
  399    10     2     -0.08796      38.31100      17.55600     29.55400
  400    10     2     -0.17120      39.14800      17.02800     30.73600
  401    10     2     -0.17639      40.39700      16.27600     30.24900
  402    10     2     -0.19151      41.25500      17.15500     29.32800
  403    10     2     -0.16514      36.92700      18.06300     30.03200
  404    10     2     -0.16409      36.03600      18.82100     29.02500
  405    10     2     -0.10342      36.47600      20.22200     28.50700