LAMMPS data file of the system for full atom style

    4998 atoms
    5100 bonds
    9792 angles
   14382 dihedrals
     612 impropers

    4 atom types
    5 bond types
    8 angle types
    6 dihedral types
    1 improper types

    0.000000    50.000000 xlo xhi
    0.000000    50.000000 ylo yhi
    0.000000    50.000000 zlo zhi

 Masses 

    1       1.0080
    2       1.0080
    3      12.0110
    4      12.0110

 Pair Coeffs 

    1       0.0300       2.4200
    2       0.0300       2.5000
    3       0.0660       3.5000
    4       0.0700       3.5500

 Bond Coeffs 

    1     268.0000        1.5290
    2     317.0000        1.5100
    3     340.0000        1.0900
    4     367.0000        1.0800
    5     469.0000        1.4000

 Angle Coeffs 

    1      33.0000      107.8000
    2      35.0000      109.5000
    3      35.0000      120.0000
    4      37.5000      110.7000
    5      58.3500      112.7000
    6      63.0000      114.0000
    7      63.0000      120.0000
    8      70.0000      120.0000

 Dihedral Coeffs 

    1      -0.2500        0.0000       0.0000        0.0000
    2       0.0000        0.0000       0.0000        0.0000
    3       0.0000        0.0000       0.3000        0.0000
    4       0.0000        0.0000       0.4620        0.0000
    5       0.0000        7.2500       0.0000        0.0000
    6       0.8500       -0.2000       0.2000        0.0000

 Improper Coeffs 

    1       2.5000     -1     2

 Atoms 

    1     1     4     -0.09578      20.57300       8.01700     31.96500
    2     1     4     -0.10500      21.58200       8.21700     32.89500
    3     1     4     -0.11695      19.36300       8.72800     32.03300
    4     1     4     -0.07510      19.19200       9.66200     33.08100
    5     1     3     -0.13694      17.90300      10.45500     33.17900
    6     1     3     -0.16972      17.79100      11.60700     32.16600
    7     1     3     -0.17577      18.85300      12.70000     32.37200
    8     1     3     -0.16621      18.64100      13.96700     31.52200
    9     1     3     -0.16216      18.77600      13.75500     30.00200
   10     1     3     -0.23443      17.43800      13.50200     29.29000
   11     1     3     -0.13612      20.97000       6.98700     30.94500
   12     1     3     -0.12298      22.26000       6.35200     31.52800
   13     1     3     -0.12900      22.77100       7.34300     32.60700
   14     1     3     -0.17508      23.30300       5.99400     30.45500
   15     1     3     -0.18368      24.50500       5.21700     31.01900
   16     1     3     -0.18527      25.58600       4.90900     29.96900
   17     1     3     -0.24935      25.12900       3.92200     28.88500
   18     1     4     -0.13927      20.22600       9.86600     34.02900
   19     1     4     -0.12374      21.43600       9.14100     33.94300
   20     1     1      0.13344      20.09700      10.58500     34.82500
   21     1     1      0.13245      22.22400       9.29600     34.66500
   22     1     1      0.13076      18.58800       8.56700     31.29900
   23     1     2      0.10020      17.07200       9.76300     33.03200
   24     1     2      0.10020      17.78600      10.83800     34.19400
   25     1     2      0.09343      16.79800      12.04900     32.23900
   26     1     2      0.09343      17.87700      11.19900     31.15900
   27     1     2      0.09241      19.84500      12.28900     32.17600
   28     1     2      0.09241      18.86000      12.99200     33.42300
   29     1     2      0.07956      19.40200      14.68900     31.82700
   30     1     2      0.07956      17.68700      14.43700     31.76300
   31     1     2      0.08203      19.21900      14.65100     29.56500
   32     1     2      0.08203      19.47700      12.94700     29.79100
   33     1     2      0.07791      17.58900      13.38500     28.21700
   34     1     2      0.07791      16.75100      14.33700     29.43500
   35     1     2      0.07791      16.94300      12.60100     29.64900
   36     1     2      0.10734      21.15700       7.49300     29.99700
   37     1     2      0.10734      20.17900       6.25100     30.79300
   38     1     2      0.11268      21.95200       5.44100     32.04600
   39     1     2      0.11325      23.11700       6.83300     33.50600
   40     1     2      0.11325      23.58000       7.97200     32.23200
   41     1     2      0.10005      23.64600       6.90200     29.95800
   42     1     2      0.10005      22.81600       5.39400     29.68400
   43     1     2      0.08996      24.96400       5.79700     31.82000
   44     1     2      0.08996      24.16500       4.28900     31.48000
   45     1     2      0.09055      26.45600       4.48900     30.47600
   46     1     2      0.09055      25.93000       5.83500     29.50500
   47     1     2      0.08064      25.95300       3.67600     28.21500
   48     1     2      0.08064      24.32800       4.33600     28.27200
   49     1     2      0.08064      24.77100       2.98900     29.32200
   50     2     4     -0.09578      25.37900      38.39700      5.94400
   51     2     4     -0.10500      25.84200      37.14400      6.31600
   52     2     4     -0.11695      25.83200      39.56400      6.58300
   53     2     4     -0.07510      26.77900      39.43400      7.62500
   54     2     3     -0.13694      27.29800      40.67400      8.32900
   55     2     3     -0.16972      28.33300      41.47300      7.52000
   56     2     3     -0.17577      29.63000      40.69200      7.25600
   57     2     3     -0.16621      30.76800      41.52900      6.64100
   58     2     3     -0.16216      30.48700      42.05800      5.22100
   59     2     3     -0.23443      29.92000      43.48600      5.19200
   60     2     3     -0.13612      24.38600      38.29900      4.82000
   61     2     3     -0.12298      24.06700      36.78300      4.72600
   62     2     3     -0.12900      25.21200      36.06100      5.48600
   63     2     3     -0.17508      23.85800      36.29200      3.28300
   64     2     3     -0.18368      23.38200      34.83100      3.20800
   65     2     3     -0.18527      23.23100      34.30600      1.77000
   66     2     3     -0.24935      22.10200      34.98500      0.98100
   67     2     4     -0.13927      27.25200      38.15200      8.00100
   68     2     4     -0.12374      26.78400      36.99000      7.34700
   69     2     1      0.13344      27.98100      38.05500      8.79200
   70     2     1      0.13245      27.14400      36.01300      7.63300
   71     2     1      0.13076      25.46700      40.53400      6.28000
   72     2     2      0.10020      26.44300      41.31300      8.55400
   73     2     2      0.10020      27.71500      40.39500      9.29800
   74     2     2      0.09343      28.56600      42.39400      8.05500
   75     2     2      0.09343      27.88400      41.77000      6.57100
   76     2     2      0.09241      29.41700      39.83500      6.61300
   77     2     2      0.09241      29.98700      40.27100      8.19700
   78     2     2      0.07956      31.64800      40.88500      6.58900
   79     2     2      0.07956      31.04800      42.34500      7.30800
   80     2     2      0.08203      31.42300      42.06100      4.66100
   81     2     2      0.08203      29.82700      41.37500      4.68500
   82     2     2      0.07791      29.76400      43.81600      4.16500
   83     2     2      0.07791      30.60500      44.19100      5.66300
   84     2     2      0.07791      28.96200      43.56100      5.70600
   85     2     2      0.10734      24.85500      38.67400      3.91000
   86     2     2      0.10734      23.49600      38.89600      5.02200
   87     2     2      0.11268      23.14900      36.62200      5.29600
   88     2     2      0.11325      24.84400      35.24500      6.10900
   89     2     2      0.11325      25.96500      35.66400      4.80500
   90     2     2      0.10005      24.78300      36.41200      2.71600
   91     2     2      0.10005      23.12200      36.93600      2.80100
   92     2     2      0.08996      24.09600      34.19300      3.73000
   93     2     2      0.08996      22.43700      34.71900      3.74100
   94     2     2      0.09055      23.03200      33.23500      1.80800
   95     2     2      0.09055      24.17500      34.41500      1.23200
   96     2     2      0.08064      21.98500      34.52400      0.00100
   97     2     2      0.08064      22.30200      36.04400      0.81700
   98     2     2      0.08064      21.14700      34.89900      1.50100
   99     3     4     -0.09578      34.37700      25.40900     25.34200
  100     3     4     -0.10500      33.25800      26.22000     25.46600
  101     3     4     -0.11695      35.34400      25.33700     26.35900
  102     3     4     -0.07510      35.15400      26.11800     27.52300
  103     3     3     -0.13694      36.17300      26.05700     28.64600
  104     3     3     -0.16972      36.08500      24.78800     29.51000
  105     3     3     -0.17577      34.75900      24.66900     30.27900
  106     3     3     -0.16621      34.72000      23.53200     31.31700
  107     3     3     -0.16216      34.80700      22.11200     30.72400
  108     3     3     -0.23443      36.23300      21.53800     30.69500
  109     3     3     -0.13612      34.37300      24.67200     24.03300
  110     3     3     -0.12298      33.24100      25.35000     23.21800
  111     3     3     -0.12900      32.37700      26.12100     24.25200
  112     3     3     -0.17508      32.44700      24.36700     22.34000
  113     3     3     -0.18368      31.43700      25.06600     21.41400
  114     3     3     -0.18527      30.59200      24.09100     20.57800
  115     3     3     -0.24935      31.40300      23.31200     19.53200
  116     3     4     -0.13927      34.00900      26.94300     27.64700
  117     3     4     -0.12374      33.04700      27.00200     26.61400
  118     3     1      0.13344      33.86000      27.53300     28.54000
  119     3     1      0.13245      32.17300      27.63000     26.70700
  120     3     1      0.13076      36.20800      24.69800     26.25400
  121     3     2      0.10020      37.16700      26.12200     28.19900
  122     3     2      0.10020      36.07800      26.94400     29.27300
  123     3     2      0.09343      36.91500      24.78200     30.21600
  124     3     2      0.09343      36.21700      23.91600     28.86900
  125     3     2      0.09241      33.93600      24.54800     29.57200
  126     3     2      0.09241      34.56500      25.60900     30.79600
  127     3     2      0.07956      33.77000      23.61400     31.84800
  128     3     2      0.07956      35.48700      23.68000     32.07800
  129     3     2      0.08203      34.19400      21.44500     31.33100
  130     3     2      0.08203      34.36800      22.08900     29.72600
  131     3     2      0.07791      36.23100      20.52600     30.29100
  132     3     2      0.07791      36.65700      21.49000     31.69800
  133     3     2      0.07791      36.90500      22.13300     30.07900
  134     3     2      0.10734      34.16200      23.62000     24.22900
  135     3     2      0.10734      35.34100      24.74300     23.53400
  136     3     2      0.11268      33.72000      26.09500     22.57900
  137     3     2      0.11325      32.08300      27.10700     23.89300
  138     3     2      0.11325      31.47600      25.56900     24.52300
  139     3     2      0.10005      31.93200      23.64200     22.97300
  140     3     2      0.10005      33.15300      23.79400     21.73700
  141     3     2      0.08996      30.76100      25.67500     22.01500
  142     3     2      0.08996      31.95800      25.76200     20.75400
  143     3     2      0.09055      29.81400      24.65600     20.06300
  144     3     2      0.09055      30.06800      23.39400     21.23400
  145     3     2      0.08064      30.74800      22.69800     18.91400
  146     3     2      0.08064      32.12800      22.64400     19.99600
  147     3     2      0.08064      31.94400      23.98700     18.86700
  148     4     4     -0.09578      44.51100      27.28000     39.89300
  149     4     4     -0.10500      43.64200      28.33300     40.13600
  150     4     4     -0.11695      44.03600      25.97900     39.65500
  151     4     4     -0.07510      42.63900      25.76200     39.67000
  152     4     3     -0.13694      42.09100      24.37200     39.40700
  153     4     3     -0.16972      42.11700      23.95200     37.92700
  154     4     3     -0.17577      41.21800      24.82200     37.03400
  155     4     3     -0.16621      41.04900      24.30200     35.59400
  156     4     3     -0.16216      42.33900      24.30500     34.75000
  157     4     3     -0.23443      43.08600      22.96300     34.75400
  158     4     3     -0.13612      45.94200      27.73800     39.92200
  159     4     3     -0.12298      45.87000      29.17400     40.50400
  160     4     3     -0.12900      44.39000      29.61800     40.35700
  161     4     3     -0.17508      46.88500      30.14100     39.87000
  162     4     3     -0.18368      46.92200      31.51500     40.56300
  163     4     3     -0.18527      47.88600      32.51300     39.89900
  164     4     3     -0.24935      49.36500      32.12000     40.02900
  165     4     4     -0.13927      41.75300      26.84000     39.91500
  166     4     4     -0.12374      42.25000      28.14200     40.15200
  167     4     1      0.13344      40.68600      26.67500     39.91900
  168     4     1      0.13245      41.57600      28.96500     40.33900
  169     4     1      0.13076      44.72300      25.16800     39.46300
  170     4     2      0.10020      42.67700      23.66400     39.99400
  171     4     2      0.10020      41.07400      24.30000     39.79700
  172     4     2      0.09343      41.80700      22.91000     37.84900
  173     4     2      0.09343      43.14600      23.99700     37.56700
  174     4     2      0.09241      41.60300      25.84300     37.01200
  175     4     2      0.09241      40.22900      24.89100     37.48900
  176     4     2      0.07956      40.32500      24.95300     35.10100
  177     4     2      0.07956      40.59200      23.31200     35.59500
  178     4     2      0.08203      42.07600      24.53600     33.71700
  179     4     2      0.08203      43.00100      25.11000     35.07200
  180     4     2      0.07791      43.97400      23.01500     34.12300
  181     4     2      0.07791      42.45700      22.16100     34.36800
  182     4     2      0.07791      43.41400      22.67500     35.75200
  183     4     2      0.10734      46.32900      27.72900     38.90300
  184     4     2      0.10734      46.56000      27.07600     40.53100
  185     4     2      0.11268      46.07600      29.08800     41.57300
  186     4     2      0.11325      44.02600      30.14300     41.24000
  187     4     2      0.11325      44.24100      30.25900     39.48700
  188     4     2      0.10005      46.66300      30.26500     38.80900
  189     4     2      0.10005      47.87500      29.68600     39.92000
  190     4     2      0.08996      45.92200      31.94900     40.55200
  191     4     2      0.08996      47.18400      31.39400     41.61500
  192     4     2      0.09055      47.74500      33.49200     40.35800
  193     4     2      0.09055      47.62700      32.63700     38.84600
  194     4     2      0.08064      50.00800      32.89700     39.61500
  195     4     2      0.08064      49.58800      31.19800     39.49300
  196     4     2      0.08064      49.64900      31.98100     41.07300
  197     5     4     -0.09578      44.10300      29.83700     35.25400
  198     5     4     -0.10500      43.65700      29.03100     36.29200
  199     5     4     -0.11695      43.73300      31.19000     35.16800
  200     5     4     -0.07510      42.88600      31.71900     36.17000
  201     5     3     -0.13694      42.47500      33.17800     36.11400
  202     5     3     -0.16972      43.57300      34.16100     36.55400
  203     5     3     -0.17577      43.97300      34.00100     38.03000
  204     5     3     -0.16621      44.90700      35.10300     38.56400
  205     5     3     -0.16216      46.30400      35.13700     37.91600
  206     5     3     -0.23443      46.42000      36.12100     36.74200
  207     5     3     -0.13612      44.98800      29.07100     34.31100
  208     5     3     -0.12298      44.80700      27.59100     34.73900
  209     5     3     -0.12900      44.19100      27.63200     36.16300
  210     5     3     -0.17508      46.10000      26.76300     34.63300
  211     5     3     -0.18368      45.87800      25.26300     34.89800
  212     5     3     -0.18527      47.17300      24.43400     34.86000
  213     5     3     -0.24935      47.81300      24.35600     33.46700
  214     5     4     -0.13927      42.43500      30.89400     37.23000
  215     5     4     -0.12374      42.81800      29.53500     37.29900
  216     5     1      0.13344      41.79500      31.30100     37.99800
  217     5     1      0.13245      42.47500      28.90500     38.10700
  218     5     1      0.13076      44.09000      31.80800     34.35800
  219     5     2      0.10020      42.17900      33.40300     35.08800
  220     5     2      0.10020      41.57700      33.32800     36.71500
  221     5     2      0.09343      43.22600      35.18000     36.38100
  222     5     2      0.09343      44.44800      34.01900     35.92000
  223     5     2      0.09241      44.43600      33.02400     38.18000
  224     5     2      0.09241      43.07000      33.99300     38.64200
  225     5     2      0.07956      45.03800      34.92300     39.63300
  226     5     2      0.07956      44.42700      36.08000     38.49600
  227     5     2      0.08203      47.03000      35.43600     38.67300
  228     5     2      0.08203      46.60200      34.13500     37.60300
  229     5     2      0.07791      47.43300      36.12200     36.33900
  230     5     2      0.07791      46.19300      37.13900     37.05900
  231     5     2      0.07791      45.74600      35.87100     35.92400
  232     5     2      0.10734      46.01500      29.41200     34.44700
  233     5     2      0.10734      44.70200      29.23900     33.27200
  234     5     2      0.11268      44.05300      27.16400     34.07300
  235     5     2      0.11325      43.40200      26.89100     36.29300
  236     5     2      0.11325      44.94400      27.47500     36.93700
  237     5     2      0.10005      46.84700      27.15700     35.32400
  238     5     2      0.10005      46.51500      26.89400     33.63300
  239     5     2      0.08996      45.42100      25.13600     35.88100
  240     5     2      0.08996      45.16100      24.86100     34.18200
  241     5     2      0.09055      46.94800      23.42100     35.19600
  242     5     2      0.09055      47.89300      24.83300     35.57700
  243     5     2      0.08064      48.67900      23.69300     33.47700
  244     5     2      0.08064      48.15800      25.33100     33.12400
  245     5     2      0.08064      47.11100      23.96800     32.72800
  246     6     4     -0.09578      32.71800      29.65400      4.78600
  247     6     4     -0.10500      33.62800      30.23300      5.66000
  248     6     4     -0.11695      31.91600      28.57000      5.17900
  249     6     4     -0.07510      32.05600      28.07300      6.49600
  250     6     3     -0.13694      31.19700      26.91000      6.95700
  251     6     3     -0.16972      29.74100      27.28800      7.27800
  252     6     3     -0.17577      29.61600      28.26300      8.46100
  253     6     3     -0.16621      28.17300      28.49400      8.95000
  254     6     3     -0.16216      27.25000      29.19400      7.93400
  255     6     3     -0.23443      26.41400      28.22400      7.08500
  256     6     3     -0.13612      32.73600      30.34000      3.44900
  257     6     3     -0.12298      33.99100      31.25000      3.50500
  258     6     3     -0.12900      34.36100      31.37200      5.00800
  259     6     3     -0.17508      33.80000      32.59800      2.79000
  260     6     3     -0.18368      35.09500      33.42500      2.70600
  261     6     3     -0.18527      34.90400      34.80400      2.05100
  262     6     3     -0.24935      34.54700      34.73300      0.55900
  263     6     4     -0.13927      32.98400      28.66800      7.38600
  264     6     4     -0.12374      33.78200      29.75900      6.97300
  265     6     1      0.13344      33.08400      28.29300      8.39400
  266     6     1      0.13245      34.49000      30.21300      7.65100
  267     6     1      0.13076      31.20800      28.13100      4.49200
  268     6     2      0.10020      31.20900      26.15400      6.17100
  269     6     2      0.10020      31.66000      26.43600      7.82300
  270     6     2      0.09343      29.17900      26.38000      7.49600
  271     6     2      0.09343      29.28800      27.72900      6.39000
  272     6     2      0.09241      30.07000      29.22000      8.19600
  273     6     2      0.09241      30.20200      27.88200      9.29700
  274     6     2      0.07956      28.23300      29.12700      9.83800
  275     6     2      0.07956      27.73000      27.55900      9.29300
  276     6     2      0.08203      26.55900      29.83800      8.47900
  277     6     2      0.08203      27.82800      29.86100      7.29100
  278     6     2      0.07791      25.76300      28.77200      6.40300
  279     6     2      0.07791      25.77800      27.60000      7.71300
  280     6     2      0.07791      27.03400      27.56300      6.48000
  281     6     2      0.10734      31.81700      30.91800      3.34500
  282     6     2      0.10734      32.78500      29.61800      2.63300
  283     6     2      0.11268      34.79800      30.69800      3.01800
  284     6     2      0.11325      35.43600      31.30200      5.17600
  285     6     2      0.11325      34.00300      32.30700      5.44000
  286     6     2      0.10005      33.02200      33.17500      3.29400
  287     6     2      0.10005      33.42900      32.40700      1.78200
  288     6     2      0.08996      35.49000      33.57700      3.71100
  289     6     2      0.08996      35.86000      32.86400      2.16700
  290     6     2      0.09055      35.82700      35.37300      2.16100
  291     6     2      0.09055      34.14000      35.36900      2.58800
  292     6     2      0.08064      34.50200      35.73200      0.12600
  293     6     2      0.08064      33.57500      34.26700      0.39600
  294     6     2      0.08064      35.29100      34.16500     -0.00000
  295     7     4     -0.09578       4.37500      36.18800     15.01700
  296     7     4     -0.10500       5.43000      35.65000     14.29600
  297     7     4     -0.11695       4.54700      37.32200     15.83000
  298     7     4     -0.07510       5.83100      37.90900     15.89900
  299     7     3     -0.13694       6.05000      39.14100     16.75800
  300     7     3     -0.16972       5.51200      40.44400     16.14300
  301     7     3     -0.17577       6.22400      40.83700     14.83800
  302     7     3     -0.16621       5.86600      42.23900     14.31000
  303     7     3     -0.16216       4.39900      42.40900     13.86900
  304     7     3     -0.23443       3.48700      42.99100     14.96100
  305     7     3     -0.13612       3.11000      35.40900     14.79300
  306     7     3     -0.12298       3.57800      34.12800     14.05400
  307     7     3     -0.12900       4.99500      34.44800     13.50600
  308     7     3     -0.17508       2.58300      33.64200     12.98600
  309     7     3     -0.18368       2.97200      32.28500     12.37300
  310     7     3     -0.18527       2.02100      31.81800     11.25800
  311     7     3     -0.24935       0.60800      31.47900     11.75500
  312     7     4     -0.13927       6.90700      37.35900     15.15800
  313     7     4     -0.12374       6.71400      36.21900     14.34700
  314     7     1      0.13344       7.88500      37.81400     15.20600
  315     7     1      0.13245       7.53300      35.79900     13.78200
  316     7     1      0.13076       3.71600      37.73400     16.38300
  317     7     2      0.10020       5.56500      38.96800     17.72000
  318     7     2      0.10020       7.11200      39.24500     16.98300
  319     7     2      0.09343       5.61700      41.24900     16.87000
  320     7     2      0.09343       4.44300      40.33000     15.95800
  321     7     2      0.09241       6.01500      40.09100     14.06800
  322     7     2      0.09241       7.30200      40.79800     14.99800
  323     7     2      0.07956       6.49900      42.42600     13.44000
  324     7     2      0.07956       6.14100      43.00400     15.03600
  325     7     2      0.08203       4.37000      43.08700     13.01600
  326     7     2      0.08203       3.99900      41.46100     13.50500
  327     7     2      0.07791       2.47000      43.11300     14.58700
  328     7     2      0.07791       3.83700      43.97200     15.28300
  329     7     2      0.07791       3.43500      42.35200     15.84100
  330     7     2      0.10734       2.43700      36.01000     14.18200
  331     7     2      0.10734       2.61000      35.18200     15.73600
  332     7     2      0.11268       3.69300      33.35300     14.81500
  333     7     2      0.11325       5.68600      33.61500     13.63600
  334     7     2      0.11325       4.97100      34.71700     12.44900
  335     7     2      0.10005       2.49000      34.39300     12.20000
  336     7     2      0.10005       1.59600      33.56000     13.44300
  337     7     2      0.08996       3.97700      32.35400     11.95600
  338     7     2      0.08996       3.02500      31.52600     13.15400
  339     7     2      0.09055       2.44500      30.93000     10.78700
  340     7     2      0.09055       1.96500      32.57400     10.47400
  341     7     2      0.08064       0.00000      31.07800     10.94500
  342     7     2      0.08064       0.09200      32.35800     12.14100
  343     7     2      0.08064       0.63500      30.73000     12.54800
  344     8     4     -0.09578      22.93000       9.24900      3.27500
  345     8     4     -0.10500      23.60600       9.14200      2.06800
  346     8     4     -0.11695      22.47300       8.11100      3.96100
  347     8     4     -0.07510      22.71700       6.84100      3.39100
  348     8     3     -0.13694      22.24800       5.59000      4.11100
  349     8     3     -0.16972      23.11600       5.19100      5.31600
  350     8     3     -0.17577      24.55400       4.81200      4.92700
  351     8     3     -0.16621      25.38700       4.20100      6.07000
  352     8     3     -0.16216      25.67600       5.15800      7.24200
  353     8     3     -0.23443      24.67600       5.03800      8.40300
  354     8     3     -0.13612      22.78500      10.68600      3.69200
  355     8     3     -0.12298      23.21100      11.49100      2.43600
  356     8     3     -0.12900      23.99100      10.49400      1.53600
  357     8     3     -0.17508      23.98400      12.77900      2.76900
  358     8     3     -0.18368      24.25800      13.65300      1.53300
  359     8     3     -0.18527      25.08700      14.91200      1.84200
  360     8     3     -0.24935      24.35100      15.93400      2.72100
  361     8     4     -0.13927      23.41100       6.73400      2.16000
  362     8     4     -0.12374      23.86200       7.89000      1.48400
  363     8     1      0.13344      23.60300       5.76200      1.72900
  364     8     1      0.13245      24.39100       7.81000      0.54600
  365     8     1      0.13076      21.95300       8.20800      4.90300
  366     8     2      0.10020      21.22300       5.76100      4.44400
  367     8     2      0.10020      22.18800       4.76200      3.40200
  368     8     2      0.09343      22.64600       4.35200      5.82900
  369     8     2      0.09343      23.13400       6.01800      6.02600
  370     8     2      0.09241      25.06800       5.68800      4.52700
  371     8     2      0.09241      24.52100       4.09200      4.10800
  372     8     2      0.07956      26.34500       3.89700      5.64200
  373     8     2      0.07956      24.92800       3.27900      6.42900
  374     8     2      0.08203      26.66900       4.93500      7.63500
  375     8     2      0.08203      25.72600       6.18900      6.88800
  376     8     2      0.07791      24.94200       5.71800      9.21200
  377     8     2      0.07791      24.66900       4.02800      8.81200
  378     8     2      0.07791      23.65800       5.27900      8.09800
  379     8     2      0.10734      23.44900      10.86900      4.53800
  380     8     2      0.10734      21.76300      10.91000      3.99900
  381     8     2      0.11268      22.29200      11.75200      1.90700
  382     8     2      0.11325      23.73000      10.59600      0.48300
  383     8     2      0.11325      25.07000      10.61200      1.63900
  384     8     2      0.10005      24.92400      12.52600      3.26300
  385     8     2      0.10005      23.40600      13.35200      3.49500
  386     8     2      0.08996      24.79700      13.06500      0.78900
  387     8     2      0.08996      23.31700      13.93800      1.06300
  388     8     2      0.09055      25.35400      15.39300      0.90100
  389     8     2      0.09055      26.03100      14.63100      2.31200
  390     8     2      0.08064      24.94700      16.83800      2.84300
  391     8     2      0.08064      24.15200      15.54200      3.71800
  392     8     2      0.08064      23.39800      16.22500      2.27800
  393     9     4     -0.09578      32.85800      35.30400     19.64700
  394     9     4     -0.10500      32.95800      33.95900     19.97000
  395     9     4     -0.11695      33.40900      36.29800     20.47400
  396     9     4     -0.07510      34.07300      35.89500     21.65600