LAMMPS data file of the system for full atom style

    4950 atoms
    5040 bonds
   10260 angles
   16200 dihedrals

    2 atom types
    2 bond types
    3 angle types
    2 dihedral types

    0.000000    50.000000 xlo xhi
    0.000000    50.000000 ylo yhi
    0.000000    50.000000 zlo zhi

 Masses 

    1       1.0080
    2      12.0110

 Pair Coeffs 

    1       0.0300       2.5000
    2       0.0660       3.5000

 Bond Coeffs 

    1     268.0000        1.5290
    2     340.0000        1.0900

 Angle Coeffs 

    1      33.0000      107.8000
    2      37.5000      110.7000
    3      58.3500      112.7000

 Dihedral Coeffs 

    1       0.0000        0.0000       0.3000        0.0000
    2       0.8500       -0.2000       0.2000        0.0000

 Atoms 

    1     1     2     -0.18299      33.78100      31.44300     21.29700
    2     1     2     -0.11875      33.07600      30.13000     21.69400
    3     1     2     -0.11715      35.28400      31.21300     21.06000
    4     1     2     -0.17313      35.52400      30.18200     19.92900
    5     1     2     -0.17647      36.02600      32.54100     20.81200
    6     1     2     -0.18259      37.55700      32.39500     20.81700
    7     1     2     -0.18117      38.27100      33.73900     20.60100
    8     1     2     -0.18376      39.80300      33.64900     20.70300
    9     1     2     -0.18131      40.45300      32.84600     19.56400
   10     1     2     -0.24486      41.98400      32.87100     19.63500
   11     1     2     -0.18107      31.54200      30.23900     21.64400
   12     1     2     -0.11968      31.09400      29.39000     20.45200
   13     1     2     -0.18227      32.13400      28.26900     20.40000
   14     1     2     -0.17061      29.64000      28.89800     20.56800
   15     1     2     -0.18054      29.16800      28.12400     19.32600
   16     1     2     -0.19669      27.67400      27.75700     19.36200
   17     1     2     -0.24266      27.31700      26.74200     20.45600
   18     1     2     -0.17148      34.27200      29.36600     19.55600
   19     1     2     -0.12198      33.46100      28.93200     20.79100
   20     1     1      0.09104      33.64000      29.96900     18.90400
   21     1     1      0.09104      34.56300      28.49500     18.96500
   22     1     1      0.10841      34.06700      28.22400     21.36000
   23     1     1      0.10547      33.36700      29.89400     22.71900
   24     1     1      0.09713      33.62600      32.18600     22.08100
   25     1     1      0.09713      33.32800      31.85800     20.39500
   26     1     1      0.10634      35.67700      30.78500     21.98600
   27     1     1      0.08771      36.32500      29.50700     20.23100
   28     1     1      0.08771      35.88200      30.67800     19.02600
   29     1     1      0.08973      35.69500      32.97700     19.86900
   30     1     1      0.08973      35.74400      33.25600     21.58800
   31     1     1      0.09476      37.85800      31.69100     20.04000
   32     1     1      0.09476      37.87700      31.96000     21.76400
   33     1     1      0.08721      37.91900      34.45100     21.34900
   34     1     1      0.08721      37.99000      34.16000     19.63400
   35     1     1      0.08741      40.08400      33.22300     21.66800
   36     1     1      0.08741      40.20800      34.66200     20.69700
   37     1     1      0.09537      40.11500      31.81000     19.59400
   38     1     1      0.09537      40.13100      33.24700     18.60200
   39     1     1      0.08178      42.42100      32.29400     18.81900
   40     1     1      0.08178      42.36900      33.88900     19.56200
   41     1     1      0.08178      42.34500      32.44400     20.57100
   42     1     1      0.09167      31.12700      29.83000     22.56700
   43     1     1      0.09167      31.18900      31.26800     21.56900
   44     1     1      0.10336      31.19800      29.99900     19.55200
   45     1     1      0.09599      31.88600      27.50100     21.13400
   46     1     1      0.09599      32.17600      27.77900     19.42600
   47     1     1      0.09279      28.98800      29.76000     20.72000
   48     1     1      0.09279      29.53300      28.27800     21.45800
   49     1     1      0.09253      29.76400      27.21900     19.19900
   50     1     1      0.09253      29.35500      28.73200     18.43900
   51     1     1      0.08955      27.07200      28.65900     19.48200
   52     1     1      0.08955      27.39400      27.34000     18.39400
   53     1     1      0.08481      26.26600      26.45900     20.39300
   54     1     1      0.08481      27.48400      27.14800     21.45400
   55     1     1      0.08481      27.90900      25.83100     20.36100
   56     2     2     -0.18299      38.90000      44.81400     39.48400
   57     2     2     -0.11875      38.17500      43.94400     40.53100
   58     2     2     -0.11715      40.37700      45.02400     39.86600
   59     2     2     -0.17313      41.12900      43.67200     39.96700
   60     2     2     -0.17647      41.07200      46.01300     38.91100
   61     2     2     -0.18259      42.46700      46.44700     39.39000
   62     2     2     -0.18117      43.12300      47.45800     38.43700
   63     2     2     -0.18376      44.47500      47.99400     38.93800
   64     2     2     -0.18131      45.58800      46.93400     38.96500
   65     2     2     -0.24486      46.94600      47.52600     39.36100
   66     2     2     -0.18107      36.79900      43.45500     40.04900
   67     2     2     -0.11968      36.94100      41.95000     39.81200
   68     2     2     -0.18227      37.97400      41.52000     40.85500
   69     2     2     -0.17061      35.60500      41.19200     39.89600
   70     2     2     -0.18054      35.74100      39.69600     39.56800
   71     2     2     -0.19669      34.39500      38.95600     39.49900
   72     2     2     -0.24266      33.67600      38.86300     40.85200
   73     2     2     -0.17148      40.19900      42.44600     40.03000
   74     2     2     -0.12198      38.97400      42.68000     40.93500
   75     2     1      0.09104      39.86000      42.20900     39.02200
   76     2     1      0.09104      40.76200      41.57400     40.36800
   77     2     1      0.10841      39.33000      42.78400     41.96200
   78     2     1      0.10547      38.02700      44.55500     41.42400
   79     2     1      0.09713      38.38800      45.77300     39.39500
   80     2     1      0.09713      38.84100      44.34800     38.49800
   81     2     1      0.10634      40.37300      45.47500     40.86100
   82     2     1      0.08771      41.77100      43.69200     40.84800
   83     2     1      0.08771      41.80000      43.54100     39.11700
   84     2     1      0.08973      41.13900      45.57700     37.91300
   85     2     1      0.08973      40.45000      46.90400     38.80700
   86     2     1      0.09476      43.10700      45.56900     39.49000
   87     2     1      0.09476      42.38900      46.88300     40.38700
   88     2     1      0.08721      42.44800      48.30500     38.30100
   89     2     1      0.08721      43.24600      47.01400     37.44800
   90     2     1      0.08741      44.35400      48.43400     39.92900
   91     2     1      0.08741      44.78300      48.81300     38.28600
   92     2     1      0.09537      45.33300      46.13800     39.66500
   93     2     1      0.09537      45.67300      46.46400     37.98400
   94     2     1      0.08178      47.71800      46.75500     39.37600
   95     2     1      0.08178      47.26300      48.29700     38.65900
   96     2     1      0.08178      46.90800      47.97400     40.35500
   97     2     1      0.09167      36.06300      43.63900     40.83300
   98     2     1      0.09167      36.44800      43.97800     39.15900
   99     2     1      0.10336      37.37400      41.80900     38.82000
  100     2     1      0.09599      37.49000      41.39500     41.82500
  101     2     1      0.09599      38.44900      40.56800     40.61100
  102     2     1      0.09279      34.89800      41.64700     39.20000
  103     2     1      0.09279      35.17400      41.31800     40.89100
  104     2     1      0.09253      36.39000      39.20900     40.29700
  105     2     1      0.09253      36.24400      39.59100     38.60400
  106     2     1      0.08955      33.74300      39.43400     38.76600
  107     2     1      0.08955      34.56900      37.94600     39.12600
  108     2     1      0.08481      32.76600      38.26800     40.76700
  109     2     1      0.08481      33.38600      39.84500     41.22500
  110     2     1      0.08481      34.30800      38.39100     41.60600
  111     3     2     -0.18299      21.21700      14.65600     12.80500
  112     3     2     -0.11875      21.26000      14.83000     14.33600
  113     3     2     -0.11715      20.09200      13.69200     12.38900
  114     3     2     -0.17313      18.70700      14.21200     12.84900
  115     3     2     -0.17647      20.13500      13.39200     10.87800
  116     3     2     -0.18259      19.19600      12.25100     10.45500
  117     3     2     -0.18117      19.28300      11.95100      8.95000
  118     3     2     -0.18376      18.43600      10.74600      8.50900
  119     3     2     -0.18131      16.92000      10.98200      8.61800
  120     3     2     -0.24486      16.10700       9.80600      8.06600
  121     3     2     -0.18107      22.15300      16.00200     14.77800
  122     3     2     -0.11968      21.20600      17.08200     15.30800
  123     3     2     -0.18227      20.04500      16.28000     15.89900
  124     3     2     -0.17061      21.87800      18.04600     16.30000
  125     3     2     -0.18054      20.94800      19.18200     16.75800
  126     3     2     -0.19669      21.64900      20.23800     17.62900
  127     3     2     -0.24266      22.10300      19.70400     18.99500
  128     3     2     -0.17148      18.78200      15.33600     13.89900
  129     3     2     -0.12198      19.86600      15.07900     14.96300
  130     3     1      0.09104      18.99300      16.27800     13.39200
  131     3     1      0.09104      17.80700      15.46600     14.37100
  132     3     1      0.10841      19.56400      14.20600     15.54500
  133     3     1      0.10547      21.66800      13.91100     14.76300
  134     3     1      0.09713      22.18300      14.28900     12.45700
  135     3     1      0.09713      21.06800      15.62200     12.31800
  136     3     1      0.10634      20.28400      12.75400     12.91500
  137     3     1      0.08771      18.13100      13.37600     13.24800
  138     3     1      0.08771      18.13400      14.58500     11.99900
  139     3     1      0.08973      19.89900      14.29700     10.31600
  140     3     1      0.08973      21.15500      13.12300     10.59800
  141     3     1      0.09476      18.16900      12.50700     10.71800
  142     3     1      0.09476      19.44000      11.35100     11.02100
  143     3     1      0.08721      20.32400      11.75100      8.68900
  144     3     1      0.08721      18.99600      12.83400      8.37600
  145     3     1      0.08741      18.71800       9.86400      9.08600
  146     3     1      0.08741      18.68300      10.51300      7.47100
  147     3     1      0.09537      16.63900      11.14800      9.65800
  148     3     1      0.09537      16.65000      11.89100      8.07900
  149     3     1      0.08178      15.03600       9.99600      8.15700
  150     3     1      0.08178      16.32200       9.63400      7.01100
  151     3     1      0.08178      16.32400       8.88500      8.60700
  152     3     1      0.09167      22.81300      15.66300     15.57800
  153     3     1      0.09167      22.79400      16.37500     13.97900
  154     3     1      0.10336      20.83400      17.64600     14.45200
  155     3     1      0.09599      20.31300      15.92300     16.89500
  156     3     1      0.09599      19.13500      16.87300     16.00700
  157     3     1      0.09279      22.76200      18.47800     15.82700
  158     3     1      0.09279      22.24100      17.48900     17.16500
  159     3     1      0.09253      20.09300      18.77200     17.29600
  160     3     1      0.09253      20.53600      19.67700     15.87700
  161     3     1      0.08955      22.50200      20.65700     17.09400
  162     3     1      0.08955      20.96200      21.07000     17.79100
  163     3     1      0.08481      22.52500      20.50500     19.60300
  164     3     1      0.08481      22.86900      18.93500     18.89500
  165     3     1      0.08481      21.26800      19.27500     19.55100
  166     4     2     -0.18299      38.97300      23.50000     16.15000
  167     4     2     -0.11875      39.20400      24.95200     16.61600
  168     4     2     -0.11715      37.83900      23.42700     15.11200
  169     4     2     -0.17313      38.16500      24.28300     13.86200
  170     4     2     -0.17647      37.49600      21.96800     14.75200
  171     4     2     -0.18259      36.21400      21.83100     13.91400
  172     4     2     -0.18117      35.87900      20.36500     13.59800
  173     4     2     -0.18376      34.54700      20.18200     12.85100
  174     4     2     -0.18131      34.56000      20.73900     11.41800
  175     4     2     -0.24486      33.25900      20.44100     10.66500
  176     4     2     -0.18107      40.51000      25.12200     17.41100
  177     4     2     -0.11968      41.45600      25.92000     16.51100
  178     4     2     -0.18227      40.51300      26.82100     15.71100
  179     4     2     -0.17061      42.54300      26.67800     17.29100
  180     4     2     -0.18054      43.54400      27.40300     16.37600
  181     4     2     -0.19669      44.72200      28.03900     17.13500
  182     4     2     -0.24266      44.30900      29.20300     18.04600
  183     4     2     -0.17148      39.32400      25.27500     14.07200
  184     4     2     -0.12198      39.26600      25.96700     15.44700
  185     4     1      0.09104      40.26800      24.73900     13.98000
  186     4     1      0.09104      39.32400      26.01700     13.27200
  187     4     1      0.10841      38.37900      26.60300     15.46700
  188     4     1      0.10547      38.37100      25.22900     17.26500
  189     4     1      0.09713      38.74000      22.87800     17.01500
  190     4     1      0.09713      39.88900      23.09100     15.72000
  191     4     1      0.10634      36.95900      23.86300     15.59000
  192     4     1      0.08771      37.26700      24.82600     13.56200
  193     4     1      0.08771      38.41900      23.64500     13.01400
  194     4     1      0.08973      38.33700      21.51100     14.22700
  195     4     1      0.08973      37.37100      21.39500     15.67200
  196     4     1      0.09476      36.32500      22.39000     12.98400
  197     4     1      0.09476      35.38100      22.28900     14.44800
  198     4     1      0.08721      35.82600      19.80500     14.53300
  199     4     1      0.08721      36.68800      19.91200     13.02500
  200     4     1      0.08741      33.73700      20.64000     13.42200
  201     4     1      0.08741      34.31700      19.11600     12.81400
  202     4     1      0.09537      34.71900      21.81700     11.43400
  203     4     1      0.09537      35.40000      20.31400     10.86600
  204     4     1      0.08178      33.29200      20.84700      9.65300
  205     4     1      0.08178      33.08300      19.36800     10.58400
  206     4     1      0.08178      32.39900      20.88300     11.17000
  207     4     1      0.09167      40.30000      25.68600     18.32100
  208     4     1      0.09167      40.94600      24.17200     17.72300
  209     4     1      0.10336      41.92900      25.21900     15.82100
  210     4     1      0.09599      40.23400      27.68900     16.31100
  211     4     1      0.09599      40.96900      27.20000     14.79400
  212     4     1      0.09279      43.08400      25.96900     17.92000
  213     4     1      0.09279      42.07600      27.39100     17.97200
  214     4     1      0.09253      43.03200      28.16700     15.79000
  215     4     1      0.09253      43.94200      26.68900     15.65300
  216     4     1      0.08955      45.24300      27.27900     17.71800
  217     4     1      0.08955      45.44900      28.40500     16.40800
  218     4     1      0.08481      45.18400      29.66600     18.50300
  219     4     1      0.08481      43.65900      28.87100     18.85600
  220     4     1      0.08481      43.78200      29.97700     17.48800
  221     5     2     -0.18299      47.70900      14.64300     15.57100
  222     5     2     -0.11875      46.84900      15.71700     16.26700
  223     5     2     -0.11715      47.28300      13.22800     16.00400
  224     5     2     -0.17313      45.79900      12.95500     15.65000
  225     5     2     -0.17647      48.23000      12.15400     15.43500
  226     5     2     -0.18259      48.00000      10.75700     16.03400
  227     5     2     -0.18117      48.97900       9.71300     15.47300
  228     5     2     -0.18376      48.84700       8.32800     16.12600
  229     5     2     -0.18131      47.52500       7.61400     15.80000
  230     5     2     -0.24486      47.47400       6.19300     16.37300
  231     5     2     -0.18107      47.02500      17.11400     15.64700
  232     5     2     -0.11968      45.71400      17.42600     14.92200
  233     5     2     -0.18227      44.66000      16.70500     15.76400
  234     5     2     -0.17061      45.45900      18.93300     14.74700
  235     5     2     -0.18054      44.18700      19.23700     13.93800
  236     5     2     -0.19669      44.00100      20.73100     13.62500
  237     5     2     -0.24266      43.73300      21.59100     14.86800
  238     5     2     -0.17148      45.00000      14.22400     15.29900
  239     5     2     -0.12198      45.33300      15.40700     16.22800
  240     5     1      0.09104      45.21800      14.50400     14.26800
  241     5     1      0.09104      43.93100      14.00500     15.32700
  242     5     1      0.10841      44.98400      15.15400     17.23100
  243     5     1      0.10547      47.16200      15.76600     17.31200
  244     5     1      0.09713      48.76000      14.81400     15.80700
  245     5     1      0.09713      47.62400      14.73400     14.48700
  246     5     1      0.10634      47.37300      13.20200     17.09200
  247     5     1      0.08771      45.32600      12.44300     16.48800
  248     5     1      0.08771      45.72600      12.26700     14.80600
  249     5     1      0.08973      48.13400      12.11600     14.34800
  250     5     1      0.08973      49.26200      12.45000     15.63300
  251     5     1      0.09476      46.97500      10.44100     15.83600
  252     5     1      0.09476      48.10100      10.80600     17.11900
  253     5     1      0.08721      50.00000      10.06800     15.62700
  254     5     1      0.08721      48.85400       9.62600     14.39300
  255     5     1      0.08741      48.96700       8.41600     17.20700
  256     5     1      0.08741      49.67700       7.70600     15.78500
  257     5     1      0.09537      46.68300       8.18300     16.19400
  258     5     1      0.09537      47.38700       7.57100     14.71900
  259     5     1      0.08178      46.52700       5.70900     16.13100
  260     5     1      0.08178      48.27400       5.57200     15.96900
  261     5     1      0.08178      47.57300       6.19900     17.45900
  262     5     1      0.09167      47.18800      17.83900     16.44700
  263     5     1      0.09167      47.88700      17.18100     14.98200
  264     5     1      0.10336      45.75500      16.95100     13.94100
  265     5     1      0.09599      44.40600      17.31000     16.63600
  266     5     1      0.09599      43.73200      16.52900     15.21600
  267     5     1      0.09279      46.31800      19.37900     14.24100
  268     5     1      0.09279      45.40300      19.41200     15.72500
  269     5     1      0.09253      43.30900      18.86100     14.46400
  270     5     1      0.09253      44.22900      18.68800     12.99600
  271     5     1      0.08955      44.87300      21.11300     13.09200
  272     5     1      0.08955      43.16100      20.84200     12.93600
  273     5     1      0.08481      43.53400      22.62600     14.58800
  274     5     1      0.08481      44.58600      21.59700     15.54700
  275     5     1      0.08481      42.86600      21.22900     15.42200
  276     6     2     -0.18299      24.57600      18.82800     28.54100
  277     6     2     -0.11875      24.89600      17.36000     28.88800
  278     6     2     -0.11715      23.62800      18.91800     27.33200
  279     6     2     -0.17313      22.28800      18.19100     27.61400
  280     6     2     -0.17647      23.42200      20.37700     26.88200
  281     6     2     -0.18259      22.68900      20.50300     25.53700
  282     6     2     -0.18117      22.52700      21.96700     25.09600
  283     6     2     -0.18376      21.89100      22.12800     23.70500
  284     6     2     -0.18131      20.41700      21.69600     23.64500
  285     6     2     -0.24486      19.78400      21.97400     22.27800
  286     6     2     -0.18107      25.58200      17.20600     30.25600
  287     6     2     -0.11968      24.55300      16.54800     31.17700
  288     6     2     -0.18227      23.74200      15.66000     30.23100
  289     6     2     -0.17061      25.18800      15.79600     32.36000
  290     6     2     -0.18054      24.14600      15.21400     33.33100
  291     6     2     -0.19669      24.76400      14.59300     34.59400
  292     6     2     -0.24266      25.59500      13.33300     34.31600
  293     6     2     -0.17148      22.33100      17.26000     28.83900
  294     6     2     -0.12198      23.64100      16.45300     28.92200
  295     6     1      0.09104      22.22200      17.86100     29.74200
  296     6     1      0.09104      21.47000      16.59000     28.82300
  297     6     1      0.10841      23.66400      15.76300     28.07600
  298     6     1      0.10547      25.57300      16.97800     28.12100
  299     6     1      0.09713      25.50600      19.36000     28.33800
  300     6     1      0.09713      24.12300      19.32900     29.39900
  301     6     1      0.10634      24.12500      18.38900     26.51500
  302     6     1      0.08771      22.00400      17.62100     26.72900
  303     6     1      0.08771      21.48500      18.91300     27.76800
  304     6     1      0.08973      22.88400      20.92800     27.65500
  305     6     1      0.08973      24.39600      20.86100     26.79200
  306     6     1      0.09476      21.70800      20.03300     25.61100
  307     6     1      0.09476      23.23600      19.95100     24.77100
  308     6     1      0.08721      23.51000      22.44200     25.08000
  309     6     1      0.08721      21.94300      22.51700     25.83500
  310     6     1      0.08741      22.47300      21.57400     22.96700
  311     6     1      0.08741      21.96400      23.17700     23.41400
  312     6     1      0.09537      20.32700      20.63200     23.86600
  313     6     1      0.09537      19.84900      22.21800     24.41800
  314     6     1      0.08178      18.74000      21.65700     22.25900
  315     6     1      0.08178      19.80900      23.03700     22.03600
  316     6     1      0.08178      20.30500      21.43800     21.48300
  317     6     1      0.09167      26.45100      16.55500     30.14600
  318     6     1      0.09167      25.94700      18.15200     30.65900
  319     6     1      0.10336      23.89700      17.33200     31.55800
  320     6     1      0.09599      24.28100      14.72900     30.04600
  321     6     1      0.09599      22.76700      15.38900     30.63900
  322     6     1      0.09279      25.83900      16.48200     32.90400
  323     6     1      0.09279      25.83300      15.00100     31.98400
  324     6     1      0.09253      23.53100      14.47200     32.82100
  325     6     1      0.09253      23.46400      16.01100     33.63300
  326     6     1      0.08955      25.37600      15.33200     35.11300
  327     6     1      0.08955      23.96000      14.33500     35.28600
  328     6     1      0.08481      25.94900      12.88900     35.24700
  329     6     1      0.08481      26.47300      13.55300     33.70900
  330     6     1      0.08481      25.00700      12.57700     33.79400
  331     7     2     -0.18299      27.77300      24.10700      1.51500
  332     7     2     -0.11875      26.39900      24.64100      1.05900
  333     7     2     -0.11715      28.84400      25.21000      1.45000
  334     7     2     -0.17313      28.47200      26.40900      2.35900
  335     7     2     -0.17647      30.24800      24.65300      1.75600
  336     7     2     -0.18259      31.37900      25.65200      1.46400
  337     7     2     -0.18117      32.76800      25.05900      1.74700
  338     7     2     -0.18376      33.92900      25.99400      1.36700
  339     7     2     -0.18131      34.02300      27.25300      2.24500
  340     7     2     -0.24486      35.25300      28.10400      1.91300
  341     7     2     -0.18107      25.24600      23.67900      1.39100
  342     7     2     -0.11968      24.43900      24.34900      2.50600
  343     7     2     -0.18227      24.59600      25.84200      2.21100
  344     7     2     -0.17061      22.98000      23.86800      2.57400
  345     7     2     -0.18054      22.20100      24.47800      3.75200
  346     7     2     -0.19669      20.78900      23.89300      3.92400
  347     7     2     -0.24266      19.83600      24.23900      2.77200
  348     7     2     -0.17148      27.00300      26.40700      2.82000
  349     7     2     -0.12198      26.03100      26.00400      1.69500
  350     7     1      0.09104      26.89600      25.71300      3.65400
  351     7     1      0.09104      26.74100      27.38900      3.21700
  352     7     1      0.10841      26.05900      26.78400      0.93200
  353     7     1      0.10547      26.43600      24.76800     -0.02500
  354     7     1      0.09713      28.05600      23.26100      0.88700
  355     7     1      0.09713      27.70900      23.71900      2.53400
  356     7     1      0.10634      28.85100      25.56800      0.41800
  357     7     1      0.08771      28.68900      27.33500      1.82600
  358     7     1      0.08771      29.10400      26.42700      3.24800
  359     7     1      0.08973      30.29600      24.32800      2.79700
  360     7     1      0.08973      30.41300      23.75700      1.15500
  361     7     1      0.09476      31.23500      26.55100      2.06400
  362     7     1      0.09476      31.32300      25.96900      0.42200
  363     7     1      0.08721      32.87800      24.13100      1.18400
  364     7     1      0.08721      32.84800      24.78100      2.79800
  365     7     1      0.08741      33.84600      26.27700      0.31600
  366     7     1      0.08741      34.86200      25.43400      1.45000
  367     7     1      0.09537      33.12800      27.86400      2.12300
  368     7     1      0.09537      34.05700      26.96500      3.29700
  369     7     1      0.08178      35.29600      28.99100      2.54600
  370     7     1      0.08178      36.17600      27.54500      2.06600
  371     7     1      0.08178      35.23500      28.44000      0.87500
  372     7     1      0.09167      24.62200      23.55400      0.50500
  373     7     1      0.09167      25.58900      22.68300      1.67600
  374     7     1      0.10336      24.93600      24.13200      3.45200
  375     7     1      0.09599      23.89700      26.13900      1.42600
  376     7     1      0.09599      24.38400      26.46800      3.08000
  377     7     1      0.09279      22.97200      22.78000      2.66600
  378     7     1      0.09279      22.47400      24.09600      1.63500
  379     7     1      0.09253      22.13800      25.56100      3.63900
  380     7     1      0.09253      22.76300      24.30600      4.67200
  381     7     1      0.08955      20.84600      22.81000      4.04400
  382     7     1      0.08955      20.36400      24.27200      4.85400
  383     7     1      0.08481      18.83200      23.86700      2.97500
  384     7     1      0.08481      20.16100      23.79700      1.83000
  385     7     1      0.08481      19.76300      25.31800      2.62800
  386     8     2     -0.18299      11.02900       6.87200      9.60800
  387     8     2     -0.11875      10.99400       7.84400      8.41100
  388     8     2     -0.11715       9.88100       7.16500     10.59100
  389     8     2     -0.17313       8.50100       7.02400      9.90200
  390     8     2     -0.17647       9.99400       6.30400     11.86400
  391     8     2     -0.18259       9.02400       6.72900     12.97800
  392     8     2     -0.18117       9.18100       5.87500     14.24600
  393     8     2     -0.18376       8.30000       6.33900     15.41800
  394     8     2     -0.18131       6.79500       6.13600     15.17800
  395     8     2     -0.24486       5.95500       6.50400     16.40600
  396     8     2     -0.18107      11.91800       7.40700      7.26200
  397     8     2     -0.11968      10.99900       6.95700      6.12300
  398     8     2     -0.18227       9.76700       7.85000      6.28500
  399     8     2     -0.17061      11.66200       7.04000      4.73800
  400     8     2     -0.18054      10.76600       6.50100      3.61000
  401     8     2     -0.19669      11.46900       6.43600      2.24400
  402     8     2     -0.24266      11.81700       7.81500      1.66600
  403     8     2     -0.17148       8.57300       6.99100      8.36400
  404     8     2     -0.12198       9.58100       8.01000      7.79900
  405     8     1      0.09104       8.86000       5.98800      8.04700