LAMMPS data file of the system for full atom style

    4980 atoms
    5146 bonds
    8964 angles
   12782 dihedrals
    1660 impropers

    5 atom types
    7 bond types
    9 angle types
    4 dihedral types
    1 improper types

    0.000000    50.000000 xlo xhi
    0.000000    50.000000 ylo yhi
    0.000000    50.000000 zlo zhi

 Masses 

    1       1.0080
    2       1.0080
    3      12.0110
    4      12.0110
    5      12.0110

 Pair Coeffs 

    1       0.0300       2.4200
    2       0.0300       2.5000
    3       0.0660       3.5000
    4       0.0700       3.5500
    5       0.0800       3.5000

 Bond Coeffs 

    1     268.0000        1.5290
    2     317.0000        1.5100
    3     340.0000        1.0900
    4     367.0000        1.0800
    5     469.0000        1.4000
    6     469.0000        1.4040
    7     520.0000        1.3700

 Angle Coeffs 

    1      33.0000      107.8000
    2      35.0000      120.0000
    3      37.5000      110.7000
    4      58.3500      112.7000
    5      63.0000      114.0000
    6      63.0000      120.0000
    7      70.0000      120.0000
    8      85.0000      117.3000
    9      85.0000      134.9000

 Dihedral Coeffs 

    1      -0.2500        0.0000       0.0000        0.0000
    2       0.0000        0.0000       0.3000        0.0000
    3       0.0000        0.0000       0.4620        0.0000
    4       0.0000        7.2500       0.0000        0.0000

 Improper Coeffs 

    1       2.5000     -1     2

 Atoms 

    1     1     4     -0.12122      23.00800      24.72600      9.96100
    2     1     5     -0.03328      23.63300      24.63400     11.23300
    3     1     4     -0.12915      25.03000      24.47300     11.43600
    4     1     4     -0.13922      25.62600      24.38400     12.70100
    5     1     4     -0.04433      21.62400      24.88500      9.76100
    6     1     4     -0.13607      20.81800      24.95600     10.90500
    7     1     4     -0.13080      21.41300      24.86700     12.17100
    8     1     3     -0.04104      21.05500      24.97400      8.33700
    9     1     3     -0.23356      21.38300      23.68500      7.55800
   10     1     3     -0.23963      19.52100      25.15200      8.30100
   11     1     3     -0.22823      21.67000      26.17800      7.59700
   12     1     4     -0.13319      24.81200      24.45600     13.83000
   13     1     4     -0.12741      23.43100      24.61500     13.65100
   14     1     5     -0.03096      22.80700      24.70600     12.37800
   15     1     1      0.14063      25.23500      24.39200     14.82200
   16     1     1      0.13577      22.80900      24.67000     14.53200
   17     1     1      0.13776      25.67100      24.41700     10.56800
   18     1     1      0.13650      26.69600      24.26200     12.79900
   19     1     1      0.13611      23.64500      24.66900      9.09400
   20     1     1      0.14166      19.74900      25.07800     10.84500
   21     1     1      0.13995      20.77000      24.92500     13.03700
   22     1     2      0.09063      22.45700      23.52700      7.45800
   23     1     2      0.09063      20.96800      23.70400      6.55000
   24     1     2      0.09063      20.97700      22.80800      8.06300
   25     1     2      0.09083      19.14700      25.21300      7.27800
   26     1     2      0.09083      19.00700      24.31500      8.77600
   27     1     2      0.09083      19.21000      26.06700      8.80600
   28     1     2      0.08511      21.26400      26.28600      6.59000
   29     1     2      0.08511      22.75200      26.09100      7.49600
   30     1     2      0.08511      21.47300      27.10900      8.13200
   31     2     4     -0.12122      21.27000      17.11500     20.22800
   32     2     5     -0.03328      20.55600      18.33800     20.11300
   33     2     4     -0.12915      20.68100      19.24700     19.02900
   34     2     4     -0.13922      19.96700      20.44900     18.93600
   35     2     4     -0.04433      21.14500      16.21600     21.30200
   36     2     4     -0.13607      20.25100      16.56200     22.32400
   37     2     4     -0.13080      19.53700      17.76400     22.23300
   38     2     3     -0.04104      21.96700      14.91900     21.32300
   39     2     3     -0.23356      23.47300      15.25000     21.30600
   40     2     3     -0.23963      21.70500      14.04600     22.57100
   41     2     3     -0.22823      21.62900      14.06000     20.08800
   42     2     4     -0.13319      19.08200      20.78100     19.96000
   43     2     4     -0.12741      18.94400      19.89700     21.03900
   44     2     5     -0.03096      19.65900      18.67500     21.15300
   45     2     1      0.14063      18.51300      21.69900     19.92400
   46     2     1      0.13577      18.25500      20.16300     21.82700
   47     2     1      0.13776      21.36400      19.00000     18.22900
   48     2     1      0.13650      20.10000      21.10500     18.08700
   49     2     1      0.13611      21.95200      16.86700     19.43100
   50     2     1      0.14166      20.09300      15.93200     23.18400
   51     2     1      0.13995      18.85400      18.00800     23.03300
   52     2     2      0.09063      23.76500      15.79200     20.40700
   53     2     2      0.09063      24.08700      14.34900     21.34900
   54     2     2      0.09063      23.74700      15.87300     22.15900
   55     2     2      0.09083      22.30200      13.13300     22.55600
   56     2     2      0.09083      21.95800      14.57500     23.49100
   57     2     2      0.09083      20.66000      13.74000     22.63500
   58     2     2      0.08511      22.17700      13.11600     20.08800
   59     2     2      0.08511      21.87000      14.56700     19.15500
   60     2     2      0.08511      20.56500      13.82100     20.05700
   61     3     4     -0.12122      24.31300       5.41800     15.77100
   62     3     5     -0.03328      24.77700       4.07900     15.86300
   63     3     4     -0.12915      26.14500       3.69600     15.86000
   64     3     4     -0.13922      26.58000       2.36800     15.95100
   65     3     4     -0.04433      22.95800       5.79600     15.77500
   66     3     4     -0.13607      22.00900       4.77000     15.87700
   67     3     4     -0.13080      22.44300       3.44100     15.96800
   68     3     3     -0.04104      22.56900       7.27900     15.67000
   69     3     3     -0.23356      23.10300       7.87100     14.35100
   70     3     3     -0.23963      21.04300       7.51500     15.69300
   71     3     3     -0.22823      23.17000       8.06600     16.85200
   72     3     4     -0.13319      25.62500       1.35700     16.05200
   73     3     4     -0.12741      24.27000       1.71400     16.05700
   74     3     5     -0.03096      23.80800       3.05400     15.96500
   75     3     1      0.14063      25.92200       0.32100     16.12500
   76     3     1      0.13577      23.53800       0.92400     16.13600
   77     3     1      0.13776      26.89400       4.47100     15.78200
   78     3     1      0.13650      27.63500       2.13100     15.94400
   79     3     1      0.13611      25.05900       6.19300     15.69400
   80     3     1      0.14166      20.95000       4.96900     15.88800
   81     3     1      0.13995      21.69300       2.66800     16.04700
   82     3     2      0.09063      24.18900       7.82600     14.28900
   83     3     2      0.09063      22.81900       8.91700     14.23200
   84     3     2      0.09063      22.71100       7.32600     13.49000
   85     3     2      0.09083      20.79900       8.57600     15.61900
   86     3     2      0.09083      20.54600       7.01700     14.86100
   87     3     2      0.09083      20.59400       7.15200     16.61900
   88     3     2      0.08511      22.88800       9.12000     16.82200
   89     3     2      0.08511      24.25900       8.02900     16.86100
   90     3     2      0.08511      22.82800       7.66200     17.80600
   91     4     4     -0.12122      32.69900      17.70200     32.75500
   92     4     5     -0.03328      32.07700      18.95100     33.01700
   93     4     4     -0.12915      32.77100      20.18100     33.17500
   94     4     4     -0.13922      32.13800      21.40400     33.43300
   95     4     4     -0.04433      32.01100      16.48500     32.59900
   96     4     4     -0.13607      30.61500      16.52200     32.71200
   97     4     4     -0.13080      29.97900      17.74300     32.97100
   98     4     3     -0.04104      32.78700      15.18900     32.31700
   99     4     3     -0.23356      33.76700      14.90100     33.47100
  100     4     3     -0.23963      31.87700      13.95000     32.16900
  101     4     3     -0.22823      33.58400      15.32700     31.00500
  102     4     4     -0.13319      30.74800      21.42500     33.54300
  103     4     4     -0.12741      30.04500      20.22200     33.39100
  104     4     5     -0.03096      30.66800      18.97300     33.12900
  105     4     1      0.14063      30.22300      22.34800     33.74200
  106     4     1      0.13577      28.96900      20.25100     33.47800
  107     4     1      0.13776      33.84800      20.17600     33.09100
  108     4     1      0.13650      32.71400      22.31100     33.54500
  109     4     1      0.13611      33.77400      17.69400     32.67100
  110     4     1      0.14166      30.00800      15.63700     32.60600
  111     4     1      0.13995      28.90300      17.74600     33.05300
  112     4     2      0.09063      34.50700      15.69100     33.58900
  113     4     2      0.09063      34.31400      13.97100     33.31600
  114     4     2      0.09063      33.23800      14.81400     34.42100
  115     4     2      0.09083      32.45600      13.04700     31.96900
  116     4     2      0.09083      31.30300      13.76200     33.07700
  117     4     2      0.09083      31.17300      14.06400     31.34400
  118     4     2      0.08511      34.12600      14.41100     30.76100
  119     4     2      0.08511      34.32200      16.12800     31.05300
  120     4     2      0.08511      32.92300      15.55000     30.16600
  121     5     4     -0.12122      24.95800      11.28200     46.60400
  122     5     5     -0.03328      25.17900      10.05100     47.27700
  123     5     4     -0.12915      25.95900       9.90300     48.45500
  124     5     4     -0.13922      26.16300       8.67800     49.10300
  125     5     4     -0.04433      24.18500      11.42700     45.43700
  126     5     4     -0.13607      23.59700      10.26800     44.91300
  127     5     4     -0.13080      23.80100       9.04200     45.56000
  128     5     3     -0.04104      24.01300      12.81000     44.79100
  129     5     3     -0.23356      25.38800      13.37400     44.38200
  130     5     3     -0.23963      23.13200      12.78900     43.52300
  131     5     3     -0.22823      23.35000      13.77900     45.79000
  132     5     4     -0.13319      25.57200       7.53400     48.57100
  133     5     4     -0.12741      24.79800       7.65800     47.40800
  134     5     5     -0.03096      24.57900       8.89000     46.73600
  135     5     1      0.14063      25.70600       6.57100     49.04200
  136     5     1      0.13577      24.34500       6.76500     47.00400
  137     5     1      0.13776      26.42100      10.78400     48.87700
  138     5     1      0.13650      26.76700       8.62200     49.99800
  139     5     1      0.13611      25.41900      12.16200     47.02300
  140     5     1      0.14166      22.98900      10.28700     44.02300
  141     5     1      0.13995      23.33700       8.16400     45.13700
  142     5     2      0.09063      26.05000      13.50700     45.23800
  143     5     2      0.09063      25.29900      14.34500     43.89300
  144     5     2      0.09063      25.89600      12.70400     43.68700
  145     5     2      0.09083      23.02800      13.78400     43.08800
  146     5     2      0.09083      23.55600      12.14900     42.74900
  147     5     2      0.09083      22.12400      12.43100     43.73900
  148     5     2      0.08511      23.18800      14.76500     45.35100
  149     5     2      0.08511      23.95500      13.92600     46.68500
  150     5     2      0.08511      22.38000      13.40200     46.11700
  151     6     4     -0.12122      29.10400      20.02800     44.71500
  152     6     5     -0.03328      30.45600      19.59700     44.75700
  153     6     4     -0.12915      30.89000      18.27100     44.49400
  154     6     4     -0.13922      32.23100      17.86700     44.54100
  155     6     4     -0.04433      28.67500      21.34200     44.97500
  156     6     4     -0.13607      29.66200      22.28300     45.29700
  157     6     4     -0.13080      31.00400      21.88200     45.34500
  158     6     3     -0.04104      27.18300      21.69700     44.90100
  159     6     3     -0.23356      26.39000      20.85400     45.91900
  160     6     3     -0.23963      26.88900      23.18200     45.21100
  161     6     3     -0.22823      26.64200      21.41300     43.48600
  162     6     4     -0.13319      33.20200      18.81400     44.86300
  163     6     4     -0.12741      32.79500      20.12900     45.12600
  164     6     5     -0.03096      31.44100      20.55800     45.08400
  165     6     1      0.14063      34.24600      18.54200     44.90800
  166     6     1      0.13577      33.55500      20.85500     45.37400
  167     6     1      0.13776      30.14600      17.52900     44.24300
  168     6     1      0.13650      32.50700      16.84400     44.33200
  169     6     1      0.13611      28.35900      19.28900     44.46500
  170     6     1      0.14166      29.42400      23.31300     45.51100
  171     6     1      0.13995      31.74600      22.62500     45.59500
  172     6     2      0.09063      26.46900      19.78600     45.71900
  173     6     2      0.09063      25.32800      21.10300     45.91300
  174     6     2      0.09063      26.75700      21.01700     46.93400
  175     6     2      0.09083      25.82300      23.40300     45.14900
  176     6     2      0.09083      27.21100      23.45400     46.21700
  177     6     2      0.09083      27.39200      23.84600     44.50600
  178     6     2      0.08511      25.58900      21.68100     43.39200
  179     6     2      0.08511      26.72600      20.36000     43.21700
  180     6     2      0.08511      27.19400      21.98000     42.73400
  181     7     4     -0.12122       4.51700      24.14900     36.90600
  182     7     5     -0.03328       5.85800      24.04500     37.36200
  183     7     4     -0.12915       6.64800      22.86700     37.28800
  184     7     4     -0.13922       7.97000      22.78600     37.74400
  185     7     4     -0.04433       3.73700      25.31700     36.97900
  186     7     4     -0.13607       4.33700      26.45100     37.54200
  187     7     4     -0.13080       5.65900      26.37300     37.99900
  188     7     3     -0.04104       2.29300      25.31600     36.45400
  189     7     3     -0.23356       1.45500      24.27600     37.22300
  190     7     3     -0.23963       1.58400      26.68000     36.60700
  191     7     3     -0.22823       2.27800      24.96100     34.95400
  192     7     4     -0.13319       8.55400      23.92200     38.30300
  193     7     4     -0.12741       7.79200      25.09600     38.38500
  194     7     5     -0.03096       6.45000      25.19800     37.92900
  195     7     1      0.14063       9.57100      23.90000     38.66500
  196     7     1      0.13577       8.25300      25.97000     38.81800
  197     7     1      0.13776       6.20500      21.98000     36.85700
  198     7     1      0.13650       8.52600      21.86300     37.66500
  199     7     1      0.13611       4.07400      23.26500     36.47500
  200     7     1      0.14166       3.81300      27.38900     37.63700
  201     7     1      0.13995       6.09900      27.26000     38.42900
  202     7     2      0.09063       1.83600      23.26400     37.09600
  203     7     2      0.09063       0.41500      24.27000     36.89400
  204     7     2      0.09063       1.45700      24.48600     38.29400
  205     7     2      0.09083       0.56300      26.64700     36.22500
  206     7     2      0.09083       1.52100      26.98500     37.65200
  207     7     2      0.09083       2.10300      27.46600     36.05800
  208     7     2      0.08511       1.26700      24.97900     34.54300
  209     7     2      0.08511       2.68100      23.96700     34.76100
  210     7     2      0.08511       2.87900      25.66700     34.37800
  211     8     4     -0.12122      39.02700       9.59100      7.13400
  212     8     5     -0.03328      39.63300       8.63800      7.99400
  213     8     4     -0.12915      40.20900       7.41200      7.56400
  214     8     4     -0.13922      40.80200       6.48500      8.43100
  215     8     4     -0.04433      38.45800      10.80500      7.56100
  216     8     4     -0.13607      38.49900      11.08000      8.93400
  217     8     4     -0.13080      39.09100      10.15400      9.80300
  218     8     3     -0.04104      37.82700      11.76400      6.54000
  219     8     3     -0.23356      36.66700      11.06300      5.80600
  220     8     3     -0.23963      37.25500      13.04800      7.17800
  221     8     3     -0.22823      38.88300      12.20100      5.50600
  222     8     4     -0.13319      40.83500       6.77300      9.79500
  223     8     4     -0.12741      40.27300       7.97700     10.24000
  224     8     5     -0.03096      39.66600       8.92900      9.37800
  225     8     1      0.14063      41.28400       6.08300     10.49400
  226     8     1      0.13577      40.30400       8.19000     11.29800
  227     8     1      0.13776      40.18900       7.17900      6.50900
  228     8     1      0.13650      41.22500       5.56700      8.05100
  229     8     1      0.13611      39.00600       9.36000      6.08100
  230     8     1      0.14166      38.08700      11.98600      9.34900
  231     8     1      0.13995      39.11100      10.38900     10.85600
  232     8     2      0.09063      37.00100      10.18700      5.25000
  233     8     2      0.09063      36.17800      11.72700      5.09300
  234     8     2      0.09063      35.90600      10.72300      6.51000
  235     8     2      0.09083      36.81600      13.70900      6.42900
  236     8     2      0.09083      36.46900      12.82300      7.90100
  237     8     2      0.09083      38.02800      13.62200      7.69100
  238     8     2      0.08511      38.47300      12.90700      4.78100
  239     8     2      0.08511      39.27900      11.35900      4.93900
  240     8     2      0.08511      39.73100      12.68700      5.99200
  241     9     4     -0.12122      44.29200      34.02800     29.74700
  242     9     5     -0.03328      43.15400      33.19000     29.88700
  243     9     4     -0.12915      41.93800      33.57600     30.51200
  244     9     4     -0.13922      40.82700      32.73300     30.63900
  245     9     4     -0.04433      45.49500      33.64400     29.12700
  246     9     4     -0.13607      45.56300      32.34100     28.61600
  247     9     4     -0.13080      44.45300      31.49600     28.74200
  248     9     3     -0.04104      46.66500      34.63500     29.03200
  249     9     3     -0.23356      47.11000      35.06200     30.44400
  250     9     3     -0.23963      47.90500      34.05300     28.31900
  251     9     3     -0.22823      46.23200      35.88700     28.24300
  252     9     4     -0.13319      40.90800      31.43900     30.12600
  253     9     4     -0.12741      42.10000      31.03800     29.50500
  254     9     5     -0.03096      43.23700      31.87800     29.36700
  255     9     1      0.14063      40.07300      30.75900     30.20400
  256     9     1      0.13577      42.15200      30.03400     29.11100
  257     9     1      0.13776      41.86400      34.57700     30.91300
  258     9     1      0.13650      39.92500      33.07700     31.12400
  259     9     1      0.13611      44.22000      35.02700     30.14700
  260     9     1      0.14166      46.44500      31.96400     28.12500
  261     9     1      0.13995      44.52900      30.49700     28.34000
  262     9     2      0.09063      46.31400      35.56700     30.99100
  263     9     2      0.09063      47.95900      35.74500     30.41300
  264     9     2      0.09063      47.40800      34.19800     31.03900
  265     9     2      0.09083      48.71700      34.77900     28.26500
  266     9     2      0.09083      48.29600      33.17900     28.84100
  267     9     2      0.09083      47.67700      33.75700     27.29300
  268     9     2      0.08511      47.05100      36.60000     28.13300
  269     9     2      0.08511      45.41300      36.41700     28.72800
  270     9     2      0.08511      45.89300      35.62100     27.24100
  271    10     4     -0.12122      16.29000      18.35800      6.28500
  272    10     5     -0.03328      15.65700      18.62200      5.04100
  273    10     4     -0.12915      16.23400      19.38000      3.98700
  274    10     4     -0.13922      15.59200      19.62900      2.76700
  275    10     4     -0.04433      15.71800      17.60700      7.32800
  276    10     4     -0.13607      14.43400      17.08900      7.11100
  277    10     4     -0.13080      13.79000      17.33700      5.89200
  278    10     3     -0.04104      16.49500      17.38200      8.63400
  279    10     3     -0.23356      16.80800      18.73700      9.29800
  280    10     3     -0.23963      15.72200      16.53400      9.66800
  281    10     3     -0.22823      17.81800      16.64900      8.34100
  282    10     4     -0.13319      14.31500      19.10800      2.56600
  283    10     4     -0.12741      13.72800      18.35700      3.59400
  284    10     5     -0.03096      14.36200      18.09400      4.83700
  285    10     1      0.14063      13.78800      19.27900      1.63900
  286    10     1      0.13577      12.73900      17.95800      3.42800
  287    10     1      0.13776      17.22400      19.78900      4.13100
  288    10     1      0.13650      16.07700      20.21300      1.99700
  289    10     1      0.13611      17.27800      18.76500      6.43100
  290    10     1      0.14166      13.92100      16.50200      7.85600
  291    10     1      0.13995      12.80100      16.92800      5.75000
  292    10     2      0.09063      17.43100      19.37100      8.66800
  293    10     2      0.09063      17.33500      18.61200     10.24500
  294    10     2      0.09063      15.89300      19.29400      9.50500
  295    10     2      0.09083      16.29900      16.39100     10.58300
  296    10     2      0.09083      14.78300      17.00800      9.95700
  297    10     2      0.09083      15.49200      15.54000      9.28100
  298    10     2      0.08511      18.38200      16.44900      9.25400
  299    10     2      0.08511      18.47100      17.22400      7.68400
  300    10     2      0.08511      17.63500      15.69100      7.85200
  301    11     4     -0.12122      27.16600      23.32300     30.08200
  302    11     5     -0.03328      26.10100      22.50200     30.54100
  303    11     4     -0.12915      26.20600      21.10700     30.78700
  304    11     4     -0.13922      25.14200      20.31600     31.23900
  305    11     4     -0.04433      27.06100      24.70500     29.84000
  306    11     4     -0.13607      25.81400      25.30100     30.07000
  307    11     4     -0.13080      24.74900      24.51100     30.52200
  308    11     3     -0.04104      28.28100      25.49600     29.34400
  309    11     3     -0.23356      28.76200      24.93000     27.99300
  310    11     3     -0.23963      27.99200      26.99900     29.13300
  311    11     3     -0.22823      29.42900      25.39300     30.36800
  312    11     4     -0.13319      23.90700      20.92200     31.46400
  313    11     4     -0.12741      23.78300      22.29800     31.22700
  314    11     5     -0.03096      24.84900      23.11700     30.76800
  315    11     1      0.14063      23.06300      20.34500     31.81300
  316    11     1      0.13577      22.82200      22.75800     31.40500
  317    11     1      0.13776      27.15900      20.62700     30.61700
  318    11     1      0.13650      25.27600      19.25700     31.41100
  319    11     1      0.13611      28.11700      22.84500     29.91200
  320    11     1      0.14166      25.64500      26.35300     29.91000
  321    11     1      0.13995      23.79800      24.99300     30.69200
  322    11     2      0.09063      29.07400      23.88900     28.07100
  323    11     2      0.09063      29.61100      25.49000     27.59800
  324    11     2      0.09063      27.96800      24.97200     27.24600
  325    11     2      0.09083      28.87600      27.53400     28.78300
  326    11     2      0.09083      27.21100      27.15800     28.38900
  327    11     2      0.09083      27.67700      27.48200     30.06000
  328    11     2      0.08511      30.30200      25.96900     30.05800
  329    11     2      0.08511      29.76100      24.36500     30.51200
  330    11     2      0.08511      29.11700      25.76800     31.34400
  331    12     4     -0.12122       8.20900      36.39700     48.47200
  332    12     5     -0.03328       7.27900      37.44300     48.70900
  333    12     4     -0.12915       7.63100      38.77100     49.07200
  334    12     4     -0.13922       6.69600      39.78900     49.30000
  335    12     4     -0.04433       7.85900      35.08300     48.11200
  336    12     4     -0.13607       6.49300      34.80000     47.98000
  337    12     4     -0.13080       5.55600      35.81600     48.20900
  338    12     3     -0.04104       8.95100      34.02800     47.88100
  339    12     3     -0.23356       9.78000      33.83800     49.16600
  340    12     3     -0.23963       8.39200      32.64200     47.48800
  341    12     3     -0.22823       9.88700      34.48000     46.74200
  342    12     4     -0.13319       5.34100      39.49300     49.16600
  343    12     4     -0.12741       4.97200      38.18900     48.80800
  344    12     5     -0.03096       5.90400      37.14300     48.57200
  345    12     1      0.14063       4.59000      40.25100     49.33300
  346    12     1      0.13577       3.91900      37.97000     48.70600
  347    12     1      0.13776       8.67900      39.01100     49.17800
  348    12     1      0.13650       7.01900      40.78300     49.57500
  349    12     1      0.13611       9.25500      36.63500     48.57900
  350    12     1      0.14166       6.13500      33.82000     47.70700
  351    12     1      0.13995       4.51000      35.57400     48.10100
  352    12     2      0.09063      10.28700      34.75400     49.46800
  353    12     2      0.09063      10.54800      33.07300     49.04400
  354    12     2      0.09063       9.14600      33.53400     50.00000
  355    12     2      0.09083       9.19100      31.91600     47.33000
  356    12     2      0.09083       7.74400      32.23500     48.26500
  357    12     2      0.09083       7.81700      32.68800     46.56200
  358    12     2      0.08511      10.66000      33.73700     46.53400
  359    12     2      0.08511      10.39900      35.41300     46.97600
  360    12     2      0.08511       9.33000      34.64200     45.81800
  361    13     4     -0.12122      37.29000      22.69700     18.04800
  362    13     5     -0.03328      38.45200      21.88200     18.08000
  363    13     4     -0.12915      38.48600      20.50900     17.71400
  364    13     4     -0.13922      39.64400      19.72300     17.75300
  365    13     4     -0.04433      37.25800      24.05700     18.41000
  366    13     4     -0.13607      38.46400      24.63400     18.83000
  367    13     4     -0.13080      39.62300      23.84900     18.87000
  368    13     3     -0.04104      35.94100      24.84500     18.33600
  369    13     3     -0.23356      34.89100      24.20200     19.26400
  370    13     3     -0.23963      36.08600      26.32200     18.76500
  371    13     3     -0.22823      35.40400      24.84100     16.89100
  372    13     4     -0.13319      40.83600      20.31000     18.17400
  373    13     4     -0.12741      40.82400      21.66400     18.53900
  374    13     5     -0.03096      39.66100      22.47800     18.50700
  375    13     1      0.14063      41.75000      19.73700     18.21700
  376    13     1      0.13577      41.75300      22.10900     18.86200
  377    13     1      0.13776      37.56700      20.04400     17.38700
  378    13     1      0.13650      39.61400      18.68200     17.46400
  379    13     1      0.13611      36.37200      22.23500     17.72200
  380    13     1      0.14166      38.53000      25.66900     19.12500
  381    13     1      0.13995      40.54000      24.31600     19.19700
  382    13     2      0.09063      34.66000      23.17700     18.97600
  383    13     2      0.09063      33.95100      24.75600     19.25700
  384    13     2      0.09063      35.24500      24.17200     20.29500
  385    13     2      0.09083      35.13600      26.85500     18.70100
  386    13     2      0.09083      36.42900      26.41000     19.79600
  387    13     2      0.09083      36.79300      26.85700     18.12900
  388    13     2      0.08511      34.48200      25.41700     16.80000
  389    13     2      0.08511      35.18500      23.83400     16.53600
  390    13     2      0.08511      36.13100      25.27300     16.20200
  391    14     4     -0.12122      31.60400      36.81600     20.68600
  392    14     5     -0.03328      31.04700      36.23600     21.85700
  393    14     4     -0.12915      31.13600      34.86000     22.19700
  394    14     4     -0.13922      30.57900      34.30900     23.35800
  395    14     4     -0.04433      31.51600      38.17900     20.35000