LAMMPS data file of the system for full atom style

    4988 atoms
    5074 bonds
   10320 angles
   16254 dihedrals

    2 atom types
    2 bond types
    3 angle types
    2 dihedral types

    0.000000    50.000000 xlo xhi
    0.000000    50.000000 ylo yhi
    0.000000    50.000000 zlo zhi

 Masses 

    1       1.0080
    2      12.0110

 Pair Coeffs 

    1       0.0300       2.5000
    2       0.0660       3.5000

 Bond Coeffs 

    1     268.0000        1.5290
    2     340.0000        1.0900

 Angle Coeffs 

    1      33.0000      107.8000
    2      37.5000      110.7000
    3      58.3500      112.7000

 Dihedral Coeffs 

    1       0.0000        0.0000       0.3000        0.0000
    2       0.8500       -0.2000       0.2000        0.0000

 Atoms 

    1     1     2     -0.16950      14.26100       5.01100     18.88600
    2     1     2     -0.10701      14.41400       3.95400     19.99500
    3     1     2     -0.10293      13.13900       4.69000     17.86300
    4     1     2     -0.10720      11.98900       3.86800     18.52000
    5     1     2     -0.23977      10.63600       3.93700     17.79000
    6     1     2     -0.17659      12.66500       5.98200     17.15700
    7     1     2     -0.18582      13.79200       6.76400     16.45300
    8     1     2     -0.17698      13.28800       7.92400     15.57800
    9     1     2     -0.18655      12.66200       9.07600     16.38300
   10     1     2     -0.18304      12.15200      10.23800     15.51200
   11     1     2     -0.17115      13.23100      10.97300     14.69200
   12     1     2     -0.17811      14.38200      11.57600     15.51700
   13     1     2     -0.24248      13.92700      12.64100     16.52500
   14     1     2     -0.17282      15.63100       4.26400     20.89600
   15     1     2     -0.12124      15.56600       3.49800     22.22700
   16     1     2     -0.16812      14.32200       3.90900     23.04600
   17     1     2     -0.18146      13.17000       4.45700     22.17900
   18     1     2     -0.24666      16.85700       3.65700     23.04100
   19     1     2     -0.16292      11.84900       4.21100     20.01300
   20     1     2     -0.10943      13.09800       3.76900     20.80400
   21     1     1      0.08823      10.96700       3.73100     20.43800
   22     1     1      0.08823      11.69000       5.28500     20.11900
   23     1     1      0.10225      12.99200       2.70000     20.99300
   24     1     1      0.09412      14.61900       3.00200     19.49900
   25     1     1      0.09020      15.20800       5.13600     18.35900
   26     1     1      0.09020      14.05500       5.97000     19.36300
   27     1     1      0.09186      13.57200       4.04800     17.09400
   28     1     1      0.09463      12.29100       2.81900     18.47600
   29     1     1      0.08245      10.19200       4.93000     17.85100
   30     1     1      0.08245      10.74100       3.67300     16.73800
   31     1     1      0.08245       9.92300       3.23800     18.22700
   32     1     1      0.10131      11.91900       5.73400     16.40200
   33     1     1      0.10131      12.16100       6.62300     17.88300
   34     1     1      0.08857      14.35400       6.07400     15.82100
   35     1     1      0.08857      14.50300       7.14900     17.18300
   36     1     1      0.08945      14.13600       8.30400     15.00700
   37     1     1      0.08945      12.57500       7.55000     14.84100
   38     1     1      0.09219      11.81700       8.69600     16.95800
   39     1     1      0.09219      13.37400       9.44600     17.12300
   40     1     1      0.08611      11.38800       9.86200     14.83100
   41     1     1      0.08611      11.63600      10.95700     16.15000
   42     1     1      0.08902      13.64600      10.29500     13.94400
   43     1     1      0.08902      12.75300      11.76800     14.11800
   44     1     1      0.08730      15.10100      12.02900     14.83300
   45     1     1      0.08730      14.93000      10.78700     16.03400
   46     1     1      0.08076      14.78300      13.08900     17.02900
   47     1     1      0.08076      13.37500      13.44400     16.03300
   48     1     1      0.08076      13.28400      12.21400     17.29600
   49     1     1      0.08965      15.67800       5.33500     21.10600
   50     1     1      0.08965      16.54900       4.02300     20.35900
   51     1     1      0.10097      15.46600       2.43800     21.97900
   52     1     1      0.08951      13.97500       3.04700     23.61800
   53     1     1      0.08951      14.58100       4.66900     23.78500
   54     1     1      0.09372      12.22600       4.35000     22.71500
   55     1     1      0.09372      13.31100       5.52800     22.02900
   56     1     1      0.08194      17.72400       3.30300     22.48200
   57     1     1      0.08194      16.81200       3.08400     23.96900
   58     1     1      0.08194      17.03800       4.70000     23.30400
   59     2     2     -0.16950      23.05200      23.47500      5.03500
   60     2     2     -0.10701      22.84200      24.84700      4.37100
   61     2     2     -0.10293      22.74900      23.46100      6.55700
   62     2     2     -0.10720      21.65800      24.50900      6.92900
   63     2     2     -0.23977      20.92000      24.24400      8.25400
   64     2     2     -0.17659      22.42900      22.02300      7.03200
   65     2     2     -0.18582      23.53600      20.99700      6.71900
   66     2     2     -0.17698      23.31200      19.62500      7.37700
   67     2     2     -0.18655      22.10600      18.85900      6.80700
   68     2     2     -0.18304      21.87400      17.48600      7.46500
   69     2     2     -0.17115      23.01400      16.46400      7.28200
   70     2     2     -0.17811      23.37800      16.14400      5.82100
   71     2     2     -0.24248      22.22400      15.52400      5.02000
   72     2     2     -0.17282      23.28900      24.82500      2.89200
   73     2     2     -0.12124      22.71500      26.01400      2.10400
   74     2     2     -0.16812      21.17000      25.97100      2.07700
   75     2     2     -0.18146      20.55700      25.20100      3.26400
   76     2     2     -0.24666      23.30300      26.09800      0.68900
   77     2     2     -0.16292      20.67700      24.72200      5.76400
   78     2     2     -0.10943      21.38400      25.36100      4.55200
   79     2     1      0.08823      19.84500      25.35700      6.07100
   80     2     1      0.08823      20.23800      23.76200      5.48700
   81     2     1      0.10225      21.45000      26.43200      4.75200
   82     2     1      0.09412      23.49400      25.55300      4.89000
   83     2     1      0.09020      24.07300      23.13200      4.86400
   84     2     1      0.09020      22.40600      22.75500      4.52900
   85     2     1      0.09186      23.65900      23.77100      7.07400
   86     2     1      0.09463      22.17400      25.46100      7.06900
   87     2     1      0.08245      20.29200      23.35500      8.19800
   88     2     1      0.08245      21.62200      24.11400      9.07800
   89     2     1      0.08245      20.27200      25.08100      8.51200
   90     2     1      0.10131      22.27600      22.01900      8.11100
   91     2     1      0.10131      21.48500      21.70200      6.59000
   92     2     1      0.08857      24.49000      21.39400      7.06800
   93     2     1      0.08857      23.64200      20.86500      5.64300
   94     2     1      0.08945      24.21500      19.03200      7.23000
   95     2     1      0.08945      23.20500      19.74300      8.45700
   96     2     1      0.09219      21.20200      19.45200      6.95000
   97     2     1      0.09219      22.21000      18.74400      5.72800
   98     2     1      0.08611      21.69700      17.62900      8.53100
   99     2     1      0.08611      20.94700      17.06100      7.07700
  100     2     1      0.08902      23.90600      16.81700      7.80300
  101     2     1      0.08902      22.73800      15.53800      7.79000
  102     2     1      0.08730      24.21800      15.44900      5.81600
  103     2     1      0.08730      23.73800      17.04100      5.31700
  104     2     1      0.08076      22.55200      15.24700      4.01800
  105     2     1      0.08076      21.84300      14.62300      5.50400
  106     2     1      0.08076      21.39300      16.22100      4.90800
  107     2     1      0.08965      22.96400      23.89600      2.41700
  108     2     1      0.08965      24.37800      24.82200      2.84200
  109     2     1      0.10097      23.01400      26.92100      2.63500
  110     2     1      0.08951      20.79000      26.99300      2.06300
  111     2     1      0.08951      20.81400      25.51100      1.15400
  112     2     1      0.09372      19.52900      25.53000      3.42100
  113     2     1      0.09372      20.49900      24.14200      3.01400
  114     2     1      0.08194      24.38900      26.19600      0.71700
  115     2     1      0.08194      22.91300      26.96300      0.15000
  116     2     1      0.08194      23.06700      25.20900      0.10400
  117     3     2     -0.16950      22.23300      22.10200     13.81800
  118     3     2     -0.10701      23.62600      22.63300     13.43200
  119     3     2     -0.10293      22.17200      21.47300     15.23500
  120     3     2     -0.10720      23.20700      22.13300     16.19600
  121     3     2     -0.23977      22.89900      21.97800     17.69500
  122     3     2     -0.17659      20.71900      21.48500     15.77000
  123     3     2     -0.18582      19.70500      20.77700     14.85000
  124     3     2     -0.17698      18.31300      20.60400     15.48100
  125     3     2     -0.18655      17.56300      21.93100     15.69000
  126     3     2     -0.18304      16.17100      21.76500     16.32500
  127     3     2     -0.17115      15.15600      20.95500     15.49200
  128     3     2     -0.17811      14.88200      21.50500     14.08000
  129     3     2     -0.24248      14.28500      22.91900     14.07500
  130     3     2     -0.17282      23.64900      23.12000     11.96600
  131     3     2     -0.12124      24.86200      24.02200     11.68400
  132     3     2     -0.16812      24.81700      25.30200     12.55000
  133     3     2     -0.18146      24.01000      25.13200     13.85300
  134     3     2     -0.24666      24.99100      24.35500     10.19100
  135     3     2     -0.16292      23.45400      23.60200     15.81500
  136     3     2     -0.10943      24.13200      23.71200     14.43300
  137     3     1      0.08823      24.07800      24.09500     16.56100
  138     3     1      0.08823      22.50200      24.13700     15.81600
  139     3     1      0.10225      25.19600      23.52500     14.58600
  140     3     1      0.09412      24.31600      21.78900     13.49900
  141     3     1      0.09020      21.89800      21.37100     13.08100
  142     3     1      0.09020      21.52900      22.93300     13.75800
  143     3     1      0.09186      22.46700      20.42600     15.14200
  144     3     1      0.09463      24.15400      21.61500     16.03700
  145     3     1      0.08245      22.01100      22.53800     17.98900
  146     3     1      0.08245      22.74500      20.93200     17.96100
  147     3     1      0.08245      23.72700      22.34400     18.30200
  148     3     1      0.10131      20.68200      20.98900     16.74000
  149     3     1      0.10131      20.41100      22.51700     15.94400
  150     3     1      0.08857      20.09300      19.79000     14.59600
  151     3     1      0.08857      19.60700      21.31300     13.90600
  152     3     1      0.08945      17.72600      19.96100     14.82400
  153     3     1      0.08945      18.39800      20.06800     16.42700
  154     3     1      0.09219      18.15000      22.57800     16.34300
  155     3     1      0.09219      17.48200      22.46900     14.74400
  156     3     1      0.08611      16.28000      21.29300     17.30200
  157     3     1      0.08611      15.75700      22.75300     16.53100
  158     3     1      0.08902      15.49400      19.92100     15.41300
  159     3     1      0.08902      14.21500      20.90400     16.04100
  160     3     1      0.08730      14.18900      20.83200     13.57400
  161     3     1      0.08730      15.79500      21.48600     13.48400
  162     3     1      0.08076      14.04000      23.23200     13.05900
  163     3     1      0.08076      13.36900      22.96700     14.66600
  164     3     1      0.08076      14.98500      23.65200     14.47900
  165     3     1      0.08965      22.73600      23.67400     11.74100
  166     3     1      0.08965      23.65000      22.25800     11.29800
  167     3     1      0.10097      25.75200      23.45800     11.97000
  168     3     1      0.08951      25.83900      25.60400     12.78500
  169     3     1      0.08951      24.38600      26.13200     11.98900
  170     3     1      0.09372      24.33300      25.87600     14.58200
  171     3     1      0.09372      22.95900      25.34100     13.65500
  172     3     1      0.08194      25.08900      23.45000      9.59100
  173     3     1      0.08194      25.87200      24.97000      9.99800
  174     3     1      0.08194      24.12000      24.90100      9.82600
  175     4     2     -0.16950      29.38200      25.24000     42.85600
  176     4     2     -0.10701      28.37800      24.39800     42.04800
  177     4     2     -0.10293      30.78600      24.59300     42.98200
  178     4     2     -0.10720      31.11400      23.70000     41.74600
  179     4     2     -0.23977      32.61200      23.44000     41.50700
  180     4     2     -0.17659      31.85500      25.67200     43.28000
  181     4     2     -0.18582      31.56300      26.51400     44.53700
  182     4     2     -0.17698      32.72500      27.43500     44.95000
  183     4     2     -0.18655      32.99000      28.57500     43.95200
  184     4     2     -0.18304      34.15400      29.49800     44.35600
  185     4     2     -0.17115      33.95900      30.27000     45.67700
  186     4     2     -0.17811      32.70900      31.16700     45.73100
  187     4     2     -0.24248      32.70300      32.28000     44.67400
  188     4     2     -0.17282      26.96900      25.03200     42.07600
  189     4     2     -0.12124      26.06800      24.47000     40.96400
  190     4     2     -0.16812      26.64400      24.78900     39.56600
  191     4     2     -0.18146      28.17000      25.00800     39.56700
  192     4     2     -0.24666      24.61900      24.95600     41.10300
  193     4     2     -0.16292      30.42000      24.23300     40.48200
  194     4     2     -0.10943      28.88600      24.12200     40.60200
  195     4     1      0.08823      30.75100      23.68400     39.60000
  196     4     1      0.08823      30.71600      25.27100     40.32100
  197     4     1      0.10225      28.62300      23.09000     40.36800
  198     4     1      0.09412      28.30200      23.42900     42.54700
  199     4     1      0.09020      28.98200      25.43800     43.85100
  200     4     1      0.09020      29.47200      26.21300     42.37000
  201     4     1      0.09186      30.76300      23.92300     43.84400
  202     4     1      0.09463      30.67600      22.72000     41.94400
  203     4     1      0.08245      33.14000      24.34600     41.20800
  204     4     1      0.08245      33.09200      23.04400     42.40200
  205     4     1      0.08245      32.75700      22.70700     40.71400
  206     4     1      0.10131      32.82500      25.19800     43.42300
  207     4     1      0.10131      31.96000      26.32200     42.40900
  208     4     1      0.08857      31.34700      25.84000     45.36800
  209     4     1      0.08857      30.66400      27.11400     44.39600
  210     4     1      0.08945      32.48500      27.86000     45.92500
  211     4     1      0.08945      33.63200      26.84600     45.09500
  212     4     1      0.09219      33.22600      28.15200     42.97500
  213     4     1      0.09219      32.08200      29.16200     43.80300
  214     4     1      0.08611      35.06800      28.90600     44.42700
  215     4     1      0.08611      34.33800      30.20900     43.55000
  216     4     1      0.08902      33.92700      29.56500     46.51000
  217     4     1      0.08902      34.84300      30.88200     45.85800
  218     4     1      0.08730      32.65200      31.62500     46.71900
  219     4     1      0.08730      31.80600      30.56300     45.63700
  220     4     1      0.08076      31.83800      32.93100     44.80100
  221     4     1      0.08076      33.59800      32.90100     44.74500
  222     4     1      0.08076      32.65600      31.87300     43.66300
  223     4     1      0.08965      27.04300      26.11500     41.95800
  224     4     1      0.08965      26.51800      24.86700     43.05500
  225     4     1      0.10097      26.06000      23.38300     41.08000
  226     4     1      0.08951      26.38800      23.97600     38.88500
  227     4     1      0.08951      26.17400      25.68100     39.15000
  228     4     1      0.09372      28.56600      24.82800     38.56600
  229     4     1      0.09372      28.38400      26.05300     39.79200
  230     4     1      0.08194      24.19600      24.66900     42.06600
  231     4     1      0.08194      23.98300      24.52600     40.32700
  232     4     1      0.08194      24.55200      26.04200     41.02300
  233     5     2     -0.16950      41.56400      27.55500     35.77200
  234     5     2     -0.10701      41.11900      29.00400     35.50100
  235     5     2     -0.10293      41.25000      27.06000     37.20800
  236     5     2     -0.10720      39.98300      27.76000     37.78700
  237     5     2     -0.23977      39.29000      27.00900     38.93800
  238     5     2     -0.17659      41.18700      25.51400     37.24600
  239     5     2     -0.18582      42.46400      24.82100     36.73100
  240     5     2     -0.17698      42.48300      23.30100     36.96900
  241     5     2     -0.18655      41.44000      22.53600     36.13500
  242     5     2     -0.18304      41.45100      21.01400     36.37100
  243     5     2     -0.17115      42.75800      20.29300     35.98500
  244     5     2     -0.17811      43.19100      20.46700     34.51800
  245     5     2     -0.24248      42.17800      19.91300     33.50600
  246     5     2     -0.17282      41.58100      29.47700     34.10400
  247     5     2     -0.12124      40.81300      30.72600     33.64200
  248     5     2     -0.16812      39.30100      30.43200     33.50700
  249     5     2     -0.18146      38.82200      29.26600     34.39500
  250     5     2     -0.24666      41.39300      31.30600     32.34500
  251     5     2     -0.16292      38.99500      28.12500     36.66700
  252     5     2     -0.10943      39.59000      29.19100     35.72600
  253     5     1      0.08823      38.05900      28.49700     37.08500
  254     5     1      0.08823      38.73900      27.22300     36.10900
  255     5     1      0.10225      39.46100      30.15700     36.21800
  256     5     1      0.09412      41.62800      29.63300     36.23500
  257     5     1      0.09020      42.63200      27.45300     35.57700
  258     5     1      0.09020      41.06400      26.91000     35.04700
  259     5     1      0.09186      42.08300      27.35900     37.84700
  260     5     1      0.09463      40.31900      28.70600     38.21700
  261     5     1      0.08245      38.83200      26.08000     38.59900
  262     5     1      0.08245      39.99300      26.77200     39.73600
  263     5     1      0.08245      38.49900      27.61700     39.37700
  264     5     1      0.10131      41.02400      25.17900     38.27000
  265     5     1      0.10131      40.32100      25.17700     36.67400
  266     5     1      0.08857      43.32800      25.25800     37.23600
  267     5     1      0.08857      42.60600      25.01900     35.66900
  268     5     1      0.08945      43.48000      22.93500     36.72000
  269     5     1      0.08945      42.34300      23.08900     38.03000
  270     5     1      0.09219      40.44300      22.90200     36.38000
  271     5     1      0.09219      41.57700      22.75100     35.07400
  272     5     1      0.08611      41.23800      20.81700     37.42300
  273     5     1      0.08611      40.62000      20.56700     35.82400
  274     5     1      0.08902      43.56600      20.63000     36.63700
  275     5     1      0.08902      42.64700      19.22900     36.19800
  276     5     1      0.08730      44.14300      19.95400     34.37300
  277     5     1      0.08730      43.39100      21.51700     34.30400
  278     5     1      0.08076      42.56300      19.99200     32.48900
  279     5     1      0.08076      41.95900      18.86100     33.69700
  280     5     1      0.08076      41.23700      20.46400     33.53900
  281     5     1      0.08965      41.43400      28.68000     33.37200
  282     5     1      0.08965      42.65300      29.67200     34.12400
  283     5     1      0.10097      40.93700      31.48200     34.42100
  284     5     1      0.08951      38.74300      31.33700     33.75400
  285     5     1      0.08951      39.04400      30.20000     32.47300
  286     5     1      0.09372      37.75000      29.35800     34.57200
  287     5     1      0.09372      38.95800      28.32600     33.85800
  288     5     1      0.08194      42.44300      31.57300     32.46700
  289     5     1      0.08194      40.86000      32.20900     32.04400
  290     5     1      0.08194      41.32800      30.59200     31.52300
  291     6     2     -0.16950      37.59400      14.34600      4.42900
  292     6     2     -0.10701      36.15200      13.88100      4.15400
  293     6     2     -0.10293      37.80600      14.92200      5.85400
  294     6     2     -0.10720      36.83500      14.26800      6.88300
  295     6     2     -0.23977      37.28100      14.36100      8.35300
  296     6     2     -0.17659      39.29900      14.83700      6.25500
  297     6     2     -0.18582      40.25500      15.53700      5.27000
  298     6     2     -0.17698      41.70400      15.63600      5.77800
  299     6     2     -0.18655      42.41500      14.27500      5.87700
  300     6     2     -0.18304      43.86400      14.36700      6.38900
  301     6     2     -0.17115      44.83300      15.16600      5.49400
  302     6     2     -0.17811      44.95700      14.65600      4.04700
  303     6     2     -0.24248      45.49400      13.22100      3.94300
  304     6     2     -0.17282      35.97900      13.44600      2.68200
  305     6     2     -0.12124      34.71000      12.60000      2.48200
  306     6     2     -0.16812      34.78000      11.29100      3.30100
  307     6     2     -0.18146      35.70500      11.38500      4.53000
  308     6     2     -0.24666      34.43600      12.32400      0.99700
  309     6     2     -0.16292      36.49600      12.82400      6.48000
  310     6     2     -0.10943      35.69400      12.78800      5.16300
  311     6     1      0.08823      35.92100      12.33000      7.26400
  312     6     1      0.08823      37.42100      12.25400      6.37900
  313     6     1      0.10225      34.65600      13.00900      5.41700
  314     6     1      0.09412      35.50500      14.74700      4.30900
  315     6     1      0.09020      37.89200      15.08800      3.68800
  316     6     1      0.09020      38.25600      13.49100      4.28000
  317     6     1      0.09186      37.54700      15.98200      5.82000
  318     6     1      0.09463      35.89900      14.82800      6.82700
  319     6     1      0.08245      38.16800      13.75700      8.54800
  320     6     1      0.08245      37.50000      15.39000      8.63600
  321     6     1      0.08245      36.49600      14.00500      9.02000
  322     6     1      0.10131      39.44200      15.29700      7.23200
  323     6     1      0.10131      39.57900      13.78900      6.36900
  324     6     1      0.08857      39.88700      16.54700      5.08300
  325     6     1      0.08857      40.24800      15.03100      4.30500
  326     6     1      0.08945      42.25600      16.27900      5.09100
  327     6     1      0.08945      41.72600      16.14200      6.74400
  328     6     1      0.09219      41.86200      13.62900      6.56000
  329     6     1      0.09219      42.39000      13.76700      4.91200
  330     6     1      0.08611      43.86100      14.80800      7.38600
  331     6     1      0.08611      44.25400      13.35800      6.52600
  332     6     1      0.08902      44.53100      16.21500      5.47700
  333     6     1      0.08902      45.82000      15.16300      5.95700
  334     6     1      0.08730      45.63000      15.31900      3.50100
  335     6     1      0.08730      43.99700      14.73000      3.53600
  336     6     1      0.08076      45.63400      12.93400      2.90100
  337     6     1      0.08076      46.45600      13.11800      4.44700
  338     6     1      0.08076      44.80300      12.50200      4.38700
  339     6     1      0.08965      36.84500      12.86600      2.35800
  340     6     1      0.08965      35.95400      14.33000      2.04400
  341     6     1      0.10097      33.87300      13.18800      2.86500
  342     6     1      0.08951      33.77200      11.02000      3.61800
  343     6     1      0.08951      35.12500      10.46400      2.67800
  344     6     1      0.09372      35.41900      10.62900      5.26300
  345     6     1      0.09372      36.72600      11.14300      4.23200
  346     6     1      0.08194      34.32200      13.25200      0.43700
  347     6     1      0.08194      33.51700      11.75000      0.86600
  348     6     1      0.08194      35.24800      11.75900      0.53900
  349     7     2     -0.16950       5.72100      41.63900     11.52700
  350     7     2     -0.10701       4.69800      42.48100     12.31100
  351     7     2     -0.10293       6.69200      40.83100     12.42800
  352     7     2     -0.10720       6.02200      40.44500     13.78300
  353     7     2     -0.23977       6.66100      39.24900     14.51000
  354     7     2     -0.17659       7.27800      39.62800     11.65100
  355     7     2     -0.18582       7.99500      40.01600     10.34200
  356     7     2     -0.17698       8.75700      38.85200      9.68600
  357     7     2     -0.18655       7.83800      37.74600      9.13900
  358     7     2     -0.18304       8.59500      36.57600      8.48400
  359     7     2     -0.17115       9.42800      36.94100      7.23900
  360     7     2     -0.17811       8.63600      37.59000      6.09000
  361     7     2     -0.24248       7.53200      36.68900      5.51700
  362     7     2     -0.17282       3.85500      43.36000     11.36100
  363     7     2     -0.12124       2.57700      43.87700     12.04300
  364     7     2     -0.16812       1.65700      42.70700     12.45900
  365     7     2     -0.18146       2.41200      41.38100     12.67900
  366     7     2     -0.24666       1.83500      44.89600     11.16900
  367     7     2     -0.16292       4.50400      40.26600     13.61600
  368     7     2     -0.10943       3.82400      41.60100     13.25200
  369     7     1      0.08823       4.05900      39.87400     14.53100
  370     7     1      0.08823       4.31500      39.51800     12.84400
  371     7     1      0.10225       3.70200      42.15900     14.18100
  372     7     1      0.09412       5.26800      43.15900     12.95000
  373     7     1      0.09020       6.29500      42.28100     10.85900
  374     7     1      0.09020       5.16800      40.95400     10.88300
  375     7     1      0.09186       7.52800      41.48600     12.67800
  376     7     1      0.09463       6.15600      41.29800     14.45100
  377     7     1      0.08245       6.50600      38.31500     13.97000
  378     7     1      0.08245       7.73400      39.39300     14.64200
  379     7     1      0.08245       6.23000      39.12300     15.50300
  380     7     1      0.10131       8.00100      39.10500     12.27600
  381     7     1      0.10131       6.48100      38.91300     11.44400
  382     7     1      0.08857       8.70600      40.81600     10.55600
  383     7     1      0.08857       7.28500      40.42900      9.62500
  384     7     1      0.08945       9.35100      39.26100      8.86800
  385     7     1      0.08945       9.47200      38.43000     10.39400
  386     7     1      0.09219       7.23900      37.33900      9.95400
  387     7     1      0.09219       7.12000      38.16900      8.43400
  388     7     1      0.08611       9.25200      36.11900      9.22500
  389     7     1      0.08611       7.87900      35.79700      8.22000
  390     7     1      0.08902      10.24400      37.60500      7.52900
  391     7     1      0.08902       9.91600      36.03900      6.86800
  392     7     1      0.08730       9.33000      37.84200      5.28700
  393     7     1      0.08730       8.20800      38.53900      6.41400
  394     7     1      0.08076       7.05200      37.16200      4.66000
  395     7     1      0.08076       7.93300      35.73100      5.18400
  396     7     1      0.08076       6.75300      36.49000      6.25400
  397     7     1      0.08965       3.57500      42.79000     10.47200
  398     7     1      0.08965       4.46200      44.19300     11.00400
  399     7     1      0.10097       2.89000      44.39400     12.95300
  400     7     1      0.08951       1.12500      42.98400     13.37000
  401     7     1      0.08951       0.88500      42.53700     11.70700
  402     7     1      0.09372       1.82800      40.73100     13.33200
  403     7     1      0.09372       2.49700      40.85300     11.72900
  404     7     1      0.08194       2.46900      45.75200     10.93400
  405     7     1      0.08194       0.94700      45.27900     11.67600