LAMMPS data file of the system for full atom style

    4970 atoms
    4900 bonds
    9660 angles
   13860 dihedrals

    2 atom types
    2 bond types
    3 angle types
    2 dihedral types

    0.000000    50.000000 xlo xhi
    0.000000    50.000000 ylo yhi
    0.000000    50.000000 zlo zhi

 Masses 

    1       1.0080
    2      12.0110

 Pair Coeffs 

    1       0.0300       2.5000
    2       0.0660       3.5000

 Bond Coeffs 

    1     268.0000        1.5290
    2     340.0000        1.0900

 Angle Coeffs 

    1      33.0000      107.8000
    2      37.5000      110.7000
    3      58.3500      112.7000

 Dihedral Coeffs 

    1       0.0000        0.0000       0.3000        0.0000
    2       0.8500       -0.2000       0.2000        0.0000

 Atoms 

    1     1     2     -0.17157      42.61100      28.80400     41.29400
    2     1     2     -0.17693      42.52900      29.99500     40.32100
    3     1     2     -0.16664      41.56000      27.69700     41.06700
    4     1     2     -0.15507      41.58400      27.04700     39.67100
    5     1     2     -0.16201      42.91000      26.37500     39.25800
    6     1     2     -0.15713      43.28500      25.11800     40.06700
    7     1     2     -0.17412      44.21100      25.39600     41.26600
    8     1     2     -0.18229      44.68600      24.12100     41.98100
    9     1     2     -0.18299      43.56000      23.37400     42.71800
   10     1     2     -0.18177      44.06300      22.21200     43.59000
   11     1     2     -0.16929      44.68600      21.06200     42.78000
   12     1     2     -0.16731      44.93500      19.77400     43.58700
   13     1     2     -0.16143      45.99600      19.90000     44.69700
   14     1     2     -0.23616      45.41400      20.23500     46.07900
   15     1     2     -0.19139      41.20700      30.77500     40.40600
   16     1     2     -0.18155      41.21100      32.02500     39.51200
   17     1     2     -0.17599      39.86000      32.76300     39.46900
   18     1     2     -0.17994      39.35400      33.29700     40.82200
   19     1     2     -0.18109      40.27800      34.34900     41.46100
   20     1     2     -0.18895      39.77100      34.88200     42.81500
   21     1     2     -0.17460      38.42500      35.62800     42.77200
   22     1     2     -0.18322      38.44200      36.88600     41.89000
   23     1     2     -0.24621      37.12900      37.67400     41.97200
   24     1     1      0.08091      36.28200      37.06800     41.64700
   25     1     1      0.08091      36.93000      38.00900     42.99100
   26     1     1      0.08091      37.16500      38.55900     41.33400
   27     1     1      0.09207      39.27000      37.53300     42.18600
   28     1     1      0.09207      38.62300      36.61100     40.85000
   29     1     1      0.09472      37.63000      34.95400     42.44900
   30     1     1      0.09472      38.16400      35.91500     43.79200
   31     1     1      0.08457      40.52900      35.54400     43.23600
   32     1     1      0.08457      39.69200      34.04900     43.51600
   33     1     1      0.09062      40.44000      35.17400     40.76700
   34     1     1      0.09062      41.26000      33.90800     41.62700
   35     1     1      0.09459      38.37000      33.73500     40.65700
   36     1     1      0.09459      39.19200      32.47100     41.51600
   37     1     1      0.08982      39.93300      33.59400     38.76500
   38     1     1      0.08982      39.10600      32.09400     39.05100
   39     1     1      0.09012      42.00300      32.70700     39.82500
   40     1     1      0.09012      41.47000      31.73000     38.49400
   41     1     1      0.09179      41.02900      31.06300     41.44200
   42     1     1      0.09179      40.37800      30.13000     40.11500
   43     1     1      0.08799      43.35400      30.67400     40.54500
   44     1     1      0.08799      42.70000      29.65500     39.30000
   45     1     1      0.08422      43.61000      28.37300     41.23700
   46     1     1      0.08422      42.51700      29.17400     42.31600
   47     1     1      0.08479      40.56500      28.10600     41.24600
   48     1     1      0.08479      41.67800      26.92500     41.82700
   49     1     1      0.07998      41.32500      27.80100     38.92700
   50     1     1      0.07998      40.78100      26.31100     39.61500
   51     1     1      0.07581      43.72800      27.09500     39.25300
   52     1     1      0.07581      42.79700      26.07300     38.21600
   53     1     1      0.08469      42.38000      24.59900     40.38400
   54     1     1      0.08469      43.80100      24.42700     39.39900
   55     1     1      0.09111      43.72700      26.05300     41.98700
   56     1     1      0.09111      45.08900      25.93900     40.91300
   57     1     1      0.08861      45.45700      24.39800     42.70400
   58     1     1      0.08861      45.17300      23.46000     41.26400
   59     1     1      0.08856      43.02600      24.07800     43.35800
   60     1     1      0.08856      42.82300      22.99900     42.00600
   61     1     1      0.09150      43.22500      21.82500     44.17100
   62     1     1      0.09150      44.78700      22.59100     44.31300
   63     1     1      0.08630      45.62000      21.39100     42.32400
   64     1     1      0.08630      44.02100      20.81700     41.95000
   65     1     1      0.08071      43.99900      19.38700     43.99100
   66     1     1      0.08071      45.27700      19.01500     42.88300
   67     1     1      0.08082      46.52200      18.94700     44.78200
   68     1     1      0.08082      46.75600      20.63100     44.41700
   69     1     1      0.07940      46.20400      20.27900     46.83000
   70     1     1      0.07940      44.70100      19.47600     46.40000
   71     1     1      0.07940      44.90100      21.19400     46.09000
   72     2     2     -0.17157      34.83600      40.44300     35.85200
   73     2     2     -0.17693      35.00800      39.60100     37.13000
   74     2     2     -0.16664      33.38300      40.59200     35.35400
   75     2     2     -0.15507      32.40800      41.23100     36.36000
   76     2     2     -0.16201      32.76900      42.64900     36.84900
   77     2     2     -0.15713      32.69000      43.75000     35.77400
   78     2     2     -0.17412      34.03000      44.03700     35.06900
   79     2     2     -0.18229      33.96900      45.22700     34.09800
   80     2     2     -0.18299      33.09900      44.96200     32.85600
   81     2     2     -0.18177      33.19200      46.07200     31.79600
   82     2     2     -0.16929      32.61700      47.41900     32.26500
   83     2     2     -0.16731      32.43300      48.46000     31.14500
   84     2     2     -0.16143      33.74200      48.95800     30.50100
   85     2     2     -0.23616      34.14600      48.18500     29.23600
   86     2     2     -0.19139      34.56200      38.13900     36.97300
   87     2     2     -0.18155      34.86100      37.30200     38.22800
   88     2     2     -0.17599      34.31500      35.86300     38.16100
   89     2     2     -0.17994      34.87000      34.99700     37.01500
   90     2     2     -0.18109      36.38900      34.76300     37.09200
   91     2     2     -0.18895      36.94400      33.89600     35.94600
   92     2     2     -0.17460      36.40400      32.45500     35.88400
   93     2     2     -0.18322      36.72300      31.62000     37.13400
   94     2     2     -0.24621      36.28800      30.15700     36.98500
   95     2     1      0.08091      35.21300      30.07900     36.81500
   96     2     1      0.08091      36.79500      29.67400     36.14900
   97     2     1      0.08091      36.52100      29.58800     37.88600
   98     2     1      0.09207      37.79500      31.65700     37.33900
   99     2     1      0.09207      36.22800      32.04800     38.00500
  100     2     1      0.09472      35.32900      32.46100     35.70200
  101     2     1      0.09472      36.84300      31.96600     35.01200
  102     2     1      0.08457      38.03200      33.86300     36.02600
  103     2     1      0.08457      36.73800      34.39200     34.99500
  104     2     1      0.09062      36.65200      34.32700     38.05600
  105     2     1      0.09062      36.90100      35.72400     37.05700
  106     2     1      0.09459      34.35600      34.03600     37.04900
  107     2     1      0.09459      34.60800      35.43400     36.05100
  108     2     1      0.08982      34.51300      35.36500     39.11200
  109     2     1      0.08982      33.22800      35.90400     38.07600
  110     2     1      0.09012      35.93500      37.28800     38.42100
  111     2     1      0.09012      34.41800      37.79400     39.09500
  112     2     1      0.09179      35.06600      37.70300     36.11100
  113     2     1      0.09179      33.49300      38.09800     36.76400
  114     2     1      0.08799      36.06200      39.62000     37.41100
  115     2     1      0.08799      34.47600      40.06900     37.95900
  116     2     1      0.08422      35.26400      41.43000     36.02200
  117     2     1      0.08422      35.43700      40.00400     35.05400
  118     2     1      0.08479      33.00000      39.61200     35.06800
  119     2     1      0.08479      33.37500      41.16800     34.42900
  120     2     1      0.07998      32.31400      40.57400     37.22600
  121     2     1      0.07998      31.41200      41.25200     35.91600
  122     2     1      0.07581      33.73800      42.65600     37.34600
  123     2     1      0.07581      32.05200      42.90300     37.63100
  124     2     1      0.08469      31.91300      43.50500     35.04900
  125     2     1      0.08469      32.36200      44.67200     36.25600
  126     2     1      0.09111      34.38500      43.15600     34.53700
  127     2     1      0.09111      34.78600      44.24900     35.82700
  128     2     1      0.08861      34.98600      45.45800     33.77300
  129     2     1      0.08861      33.61600      46.11200     34.62800
  130     2     1      0.08856      33.40900      44.02200     32.39900
  131     2     1      0.08856      32.05600      44.82500     33.14500
  132     2     1      0.09150      32.65300      45.74600     30.90500
  133     2     1      0.09150      34.23200      46.19700     31.49500
  134     2     1      0.08630      33.24600      47.83900     33.05000
  135     2     1      0.08630      31.64300      47.24400     32.72600
  136     2     1      0.08071      31.74700      48.08700     30.38300
  137     2     1      0.08071      31.92900      49.32100     31.58600
  138     2     1      0.08082      33.61300      50.00500     30.22200
  139     2     1      0.08082      34.55400      48.94500     31.23000
  140     2     1      0.07940      35.05800      48.60000     28.80600
  141     2     1      0.07940      33.36900      48.24400     28.47300
  142     2     1      0.07940      34.33100      47.13200     29.43600
  143     3     2     -0.17157      18.97900      13.24900     16.78500
  144     3     2     -0.17693      20.28400      14.05700     16.65200
  145     3     2     -0.16664      18.35400      13.23900     18.19500
  146     3     2     -0.15507      17.99900      14.62400     18.76600
  147     3     2     -0.16201      17.00600      15.46500     17.93700
  148     3     2     -0.15713      15.57100      14.90600     17.87400
  149     3     2     -0.17412      15.29600      14.01900     16.64500
  150     3     2     -0.18229      13.82800      13.58000     16.52200
  151     3     2     -0.18299      13.38500      12.60200     17.62400
  152     3     2     -0.18177      11.98300      12.01400     17.39500
  153     3     2     -0.16929      10.85900      13.06000     17.47300
  154     3     2     -0.16731       9.43800      12.46800     17.53400
  155     3     2     -0.16143       8.99300      11.71800     16.26400
  156     3     2     -0.23616       9.24800      10.20400     16.31300
  157     3     2     -0.19139      21.43500      13.52100     17.51800
  158     3     2     -0.18155      22.75100      14.27500     17.26700
  159     3     2     -0.17599      23.89700      13.85500     18.20600
  160     3     2     -0.17994      24.31400      12.37500     18.12100
  161     3     2     -0.18109      24.85700      11.96100     16.74100
  162     3     2     -0.18895      25.27400      10.48000     16.65600
  163     3     2     -0.17460      26.42600      10.06100     17.58900
  164     3     2     -0.18322      27.74300      10.80700     17.32000
  165     3     2     -0.24621      28.89900      10.27600     18.17500
  166     3     1      0.08091      28.68500      10.38000     19.23900
  167     3     1      0.08091      29.09100       9.22100     17.97300
  168     3     1      0.08091      29.82000      10.82400     17.96900
  169     3     1      0.09207      28.00700      10.72100     16.26400
  170     3     1      0.09207      27.61600      11.87100     17.52000
  171     3     1      0.09472      26.13200      10.18500     18.63200
  172     3     1      0.09472      26.59400       8.99100     17.46000
  173     3     1      0.08457      25.55300      10.25300     15.62600
  174     3     1      0.08457      24.40500       9.85400     16.86600
  175     3     1      0.09062      25.69000      12.60400     16.45900
  176     3     1      0.09062      24.08800      12.13000     15.98900
  177     3     1      0.09459      25.08200      12.20400     18.87500
  178     3     1      0.09459      23.48000      11.73200     18.40300
  179     3     1      0.08982      24.76800      14.48200     18.00400
  180     3     1      0.08982      23.61000      14.08100     19.23400
  181     3     1      0.09012      23.05600      14.16000     16.22600
  182     3     1      0.09012      22.57600      15.34400     17.40000
  183     3     1      0.09179      21.57300      12.46000     17.31000
  184     3     1      0.09179      21.17300      13.60100     18.57200
  185     3     1      0.08799      20.59100      14.03700     15.60500
  186     3     1      0.08799      20.09800      15.10600     16.88100
  187     3     1      0.08422      18.25300      13.63500     16.06900
  188     3     1      0.08422      19.16600      12.22000     16.47500
  189     3     1      0.08479      19.03500      12.73900     18.88500
  190     3     1      0.08479      17.46300      12.61100     18.19100
  191     3     1      0.07998      18.91800      15.19600     18.89900
  192     3     1      0.07998      17.60100      14.49600     19.77300
  193     3     1      0.07581      17.39500      15.65800     16.93800
  194     3     1      0.07581      16.95500      16.44600     18.41100
  195     3     1      0.08469      15.34000      14.37500     18.79700
  196     3     1      0.08469      14.88000      15.74900     17.83900
  197     3     1      0.09111      15.93500      13.13900     16.65000
  198     3     1      0.09111      15.56500      14.57500     15.74500
  199     3     1      0.08861      13.69200      13.10100     15.55000
  200     3     1      0.08861      13.18400      14.46000     16.51400
  201     3     1      0.08856      14.09900      11.78000     17.67700
  202     3     1      0.08856      13.41800      13.09000     18.60000
  203     3     1      0.09150      11.80400      11.24200     18.14400
  204     3     1      0.09150      11.95700      11.51300     16.42700
  205     3     1      0.08630      10.92900      13.74700     16.62900
  206     3     1      0.08630      11.00800      13.67100     18.36600
  207     3     1      0.08071       9.32400      11.83400     18.41500
  208     3     1      0.08071       8.74900      13.29900     17.69000
  209     3     1      0.08082       7.92100      11.86900     16.13100
  210     3     1      0.08082       9.46300      12.15300     15.38000
  211     3     1      0.07940       8.88500       9.72100     15.40600
  212     3     1      0.07940       8.73000       9.74500     17.15600
  213     3     1      0.07940      10.30500       9.96500     16.40800
  214     4     2     -0.17157      27.94500      43.89300     46.77800
  215     4     2     -0.17693      26.70400      43.74000     47.67700
  216     4     2     -0.16664      28.74400      45.19800     46.97700
  217     4     2     -0.15507      29.28000      45.42700     48.40300
  218     4     2     -0.16201      30.22300      44.34000     48.95600
  219     4     2     -0.15713      31.58800      44.23600     48.24800
  220     4     2     -0.17412      31.62900      43.19400     47.11400
  221     4     2     -0.18229      33.02900      43.00400     46.50700
  222     4     2     -0.18299      33.53000      44.23000     45.72200
  223     4     2     -0.18177      34.83800      43.97500     44.95600
  224     4     2     -0.16929      36.04400      43.71100     45.87300
  225     4     2     -0.16731      37.40800      43.73700     45.15700
  226     4     2     -0.16143      37.62400      42.60800     44.13100
  227     4     2     -0.23616      37.25500      42.99700     42.69100
  228     4     2     -0.19139      25.63400      44.81800     47.44500
  229     4     2     -0.18155      24.36200      44.56300     48.27000
  230     4     2     -0.17599      23.31600      45.68800     48.16500
  231     4     2     -0.17994      22.77300      45.95700     46.74900
  232     4     2     -0.18109      22.02500      44.76100     46.13300
  233     4     2     -0.18895      21.48200      45.03000     44.71600
  234     4     2     -0.17460      20.42900      46.14900     44.61200
  235     4     2     -0.18322      19.15400      45.87800     45.42500
  236     4     2     -0.24621      18.07800      46.94600     45.19500
  237     4     1      0.08091      18.43500      47.93600     45.48200
  238     4     1      0.08091      17.77700      46.98900     44.14800
  239     4     1      0.08091      17.18600      46.73300     45.78700
  240     4     1      0.09207      18.75100      44.89800     45.16300
  241     4     1      0.09207      19.39100      45.83900     46.48800
  242     4     1      0.09472      20.86400      47.10600     44.90400
  243     4     1      0.09472      20.16000      46.26400     43.56000
  244     4     1      0.08457      21.05500      44.10600     44.32300
  245     4     1      0.08457      22.31800      45.26800     44.05500
  246     4     1      0.09062      21.21800      44.44500     46.79300
  247     4     1      0.09062      22.70200      43.91000     46.07000
  248     4     1      0.09459      22.09700      46.81000     46.81100
  249     4     1      0.09459      23.58100      46.27300     46.08900
  250     4     1      0.08982      22.48000      45.45800     48.82800
  251     4     1      0.08982      23.75000      46.61000     48.55600
  252     4     1      0.09012      23.91800      43.60800     47.98700
  253     4     1      0.09012      24.63900      44.45200     49.32000
  254     4     1      0.09179      25.38500      44.85100     46.38500
  255     4     1      0.09179      26.03600      45.79900     47.70200
  256     4     1      0.08799      26.26400      42.76000     47.48600
  257     4     1      0.08799      27.00200      43.72600     48.72600
  258     4     1      0.08422      28.60100      43.03800     46.93800
  259     4     1      0.08422      27.63700      43.82500     45.73400
  260     4     1      0.08479      28.11800      46.04600     46.69700
  261     4     1      0.08479      29.57300      45.22600     46.27100
  262     4     1      0.07998      28.43500      45.53900     49.08300
  263     4     1      0.07998      29.79200      46.39000     48.43200
  264     4     1      0.07581      29.72600      43.37100     48.99000
  265     4     1      0.07581      30.41400      44.59200     50.00000
  266     4     1      0.08469      31.89200      45.21800     47.88600
  267     4     1      0.08469      32.33500      43.95200     48.99000
  268     4     1      0.09111      30.92700      43.45100     46.32300
  269     4     1      0.09111      31.29300      42.23400     47.50800
  270     4     1      0.08861      32.99900      42.14300     45.83600
  271     4     1      0.08861      33.73600      42.74400     47.29600
  272     4     1      0.08856      32.76400      44.52900     45.00600
  273     4     1      0.08856      33.66200      45.08100     46.39100
  274     4     1      0.09150      35.04900      44.84300     44.33100
  275     4     1      0.09150      34.69900      43.13400     44.27500
  276     4     1      0.08630      35.92200      42.75600     46.38500
  277     4     1      0.08630      36.06100      44.46900     46.65800
  278     4     1      0.08071      37.58300      44.71200     44.70000
  279     4     1      0.08071      38.17600      43.64100     45.92600
  280     4     1      0.08082      38.67900      42.33000     44.13900
  281     4     1      0.08082      37.08100      41.71000     44.43300
  282     4     1      0.07940      37.45800      42.17400     42.00500
  283     4     1      0.07940      37.83800      43.85400     42.35400
  284     4     1      0.07940      36.20300      43.25400     42.58800
  285     5     2     -0.17157      19.58000      23.35600     23.20600
  286     5     2     -0.17693      18.17900      23.98300     23.33000
  287     5     2     -0.16664      19.93200      22.31500     24.29000
  288     5     2     -0.15507      18.98300      21.10600     24.37000
  289     5     2     -0.16201      18.85200      20.25900     23.08800
  290     5     2     -0.15713      20.12200      19.48500     22.68300
  291     5     2     -0.17412      21.01700      20.23100     21.67400
  292     5     2     -0.18229      22.20700      19.39400     21.17600
  293     5     2     -0.18299      23.25800      19.11300     22.26400
  294     5     2     -0.18177      24.53400      18.44600     21.72600
  295     5     2     -0.16929      24.30200      17.02700     21.18000
  296     5     2     -0.16731      25.59000      16.23100     20.90100
  297     5     2     -0.16143      26.46800      16.79400     19.76600
  298     5     2     -0.23616      27.57600      17.74300     20.24900
  299     5     2     -0.19139      17.96900      24.77800     24.62900
  300     5     2     -0.18155      16.60700      25.48900     24.66100
  301     5     2     -0.17599      16.30300      26.19100     25.99900
  302     5     2     -0.17994      17.29200      27.29900     26.40400
  303     5     2     -0.18109      17.33800      28.48200     25.42100
  304     5     2     -0.18895      18.32800      29.59100     25.82700
  305     5     2     -0.17460      18.02000      30.29900     27.15900
  306     5     2     -0.18322      16.66400      31.02200     27.17800
  307     5     2     -0.24621      16.44800      31.82300     28.46700
  308     5     1      0.08091      16.47600      31.17600     29.34500
  309     5     1      0.08091      17.21300      32.59000     28.59200
  310     5     1      0.08091      15.47700      32.32300     28.45700
  311     5     1      0.09207      16.59300      31.69400     26.32000
  312     5     1      0.09207      15.85500      30.30000     27.07100
  313     5     1      0.09472      18.07700      29.59000     27.98600
  314     5     1      0.09472      18.81100      31.02700     27.34700
  315     5     1      0.08457      18.36400      30.33700     25.03100
  316     5     1      0.08457      19.33300      29.16800     25.87500
  317     5     1      0.09062      16.33900      28.89800     25.28900
  318     5     1      0.09062      17.63500      28.11900     24.43800
  319     5     1      0.09459      16.99700      27.66200     27.38900
  320     5     1      0.09459      18.29200      26.88300     26.53400
  321     5     1      0.08982      15.29600      26.61000     25.95700
  322     5     1      0.08982      16.27200      25.44000     26.79100
  323     5     1      0.09012      16.53700      26.20100     23.83900
  324     5     1      0.09012      15.82100      24.75500     24.47600
  325     5     1      0.09179      18.77000      25.51000     24.73300
  326     5     1      0.09179      18.04400      24.11000     25.48700
  327     5     1      0.08799      18.02900      24.65100     22.48000
  328     5     1      0.08799      17.41500      23.21200     23.23400
  329     5     1      0.08422      19.67400      22.89900     22.22100
  330     5     1      0.08422      20.32800      24.15000     23.22500
  331     5     1      0.08479      19.95700      22.80700     25.26300
  332     5     1      0.08479      20.95200      21.96400     24.13600
  333     5     1      0.07998      17.99200      21.45400     24.66400
  334     5     1      0.07998      19.30700      20.46100     25.18900
  335     5     1      0.07581      18.48000      20.86100     22.25800
  336     5     1      0.07581      18.06700      19.52600     23.27500
  337     5     1      0.08469      20.68500      19.20800     23.57300
  338     5     1      0.08469      19.81400      18.54400     22.22400
  339     5     1      0.09111      21.38500      21.16300     22.09700
  340     5     1      0.09111      20.41200      20.51500     20.81200
  341     5     1      0.08861      22.68500      19.93200     20.35400
  342     5     1      0.08861      21.84200      18.45900     20.75000
  343     5     1      0.08856      23.53500      20.05300     22.74200
  344     5     1      0.08856      22.83100      18.49200     23.05300
  345     5     1      0.09150      25.26900      18.40200     22.53100
  346     5     1      0.09150      24.96900      19.07600     20.94900
  347     5     1      0.08630      23.70000      17.07200     20.27100
  348     5     1      0.08630      23.70800      16.46500     21.90300
  349     5     1      0.08071      26.17300      16.11200     21.81500
  350     5     1      0.08071      25.29000      15.22100     20.62000
  351     5     1      0.08082      26.94800      15.95900     19.25300
  352     5     1      0.08082      25.84900      17.28500     19.01400
  353     5     1      0.07940      28.18500      18.08300     19.41100
  354     5     1      0.07940      28.24200      17.24400     20.95400
  355     5     1      0.07940      27.17800      18.62700     20.74300
  356     6     2     -0.17157      38.80600      33.20900     19.38000
  357     6     2     -0.17693      39.96700      32.85300     20.32600
  358     6     2     -0.16664      37.45200      32.55500     19.72600
  359     6     2     -0.15507      36.90700      32.87800     21.12900
  360     6     2     -0.16201      36.67600      34.37000     21.44100
  361     6     2     -0.15713      35.54500      35.03800     20.63400
  362     6     2     -0.17412      36.02300      35.74600     19.35100
  363     6     2     -0.18229      34.91000      36.52200     18.62800
  364     6     2     -0.18299      33.83000      35.61500     18.01200
  365     6     2     -0.18177      32.82500      36.37200     17.12900
  366     6     2     -0.16929      31.95000      37.36800     17.90900
  367     6     2     -0.16731      30.75400      37.92500     17.11500
  368     6     2     -0.16143      31.13000      38.81300     15.91300
  369     6     2     -0.23616      31.21100      38.05300     14.58000
  370     6     2     -0.19139      40.31900      31.35700     20.33800
  371     6     2     -0.18155      41.55800      31.05800     21.19800
  372     6     2     -0.17599      41.86900      29.55600     21.34100
  373     6     2     -0.17994      42.16200      28.81200     20.02500
  374     6     2     -0.18109      43.40600      29.33100     19.28100
  375     6     2     -0.18895      43.69900      28.58700     17.96400
  376     6     2     -0.17460      44.01800      27.08700     18.10800
  377     6     2     -0.18322      45.26800      26.79700     18.95300
  378     6     2     -0.24621      45.63000      25.30800     18.96700
  379     6     1      0.08091      44.82000      24.70600     19.38000
  380     6     1      0.08091      45.84200      24.94100     17.96200
  381     6     1      0.08091      46.51800      25.12900     19.57700
  382     6     1      0.09207      46.11400      27.37100     18.57000
  383     6     1      0.09207      45.10900      27.13100     19.97900
  384     6     1      0.09472      43.15700      26.55500     18.51600
  385     6     1      0.09472      44.16500      26.67500     17.10800
  386     6     1      0.08457      44.53300      29.07900     17.46200
  387     6     1      0.08457      42.84600      28.70400     17.29400
  388     6     1      0.09062      44.27600      29.29400     19.93800
  389     6     1      0.09062      43.26500      30.38400     19.04100
  390     6     1      0.09459      42.30000      27.75800     20.26500
  391     6     1      0.09459      41.29200      28.85000     19.36800
  392     6     1      0.08982      42.71800      29.43300     22.01500
  393     6     1      0.08982      41.02900      29.06900     21.84000
  394     6     1      0.09012      42.42600      31.58500     20.80000
  395     6     1      0.09012      41.40300      31.47000     22.19600
  396     6     1      0.09179      40.49100      31.02200     19.31500
  397     6     1      0.09179      39.47400      30.78100     20.71700
  398     6     1      0.08799      40.84600      33.41900     20.01400
  399     6     1      0.08799      39.74300      33.19500     21.33700
  400     6     1      0.08422      38.69000      34.29300     19.35900
  401     6     1      0.08422      39.08000      32.93200     18.36100
  402     6     1      0.08479      37.54100      31.47300     19.62400
  403     6     1      0.08479      36.71200      32.83800     18.97700
  404     6     1      0.07998      37.58800      32.46500     21.87500
  405     6     1      0.07998      35.97200      32.33600     21.27400