LAMMPS data file of the system for full atom style

    4992 atoms
    5096 bonds
    9360 angles
   13000 dihedrals
    1040 impropers

    5 atom types
    7 bond types
   11 angle types
    6 dihedral types
    1 improper types

    0.000000    50.000000 xlo xhi
    0.000000    50.000000 ylo yhi
    0.000000    50.000000 zlo zhi

 Masses 

    1       1.0080
    2       1.0080
    3      12.0110
    4      12.0110
    5      12.0110

 Pair Coeffs 

    1       0.0300       2.4200
    2       0.0300       2.5000
    3       0.0660       3.5000
    4       0.0700       3.5500
    5       0.0800       3.5000

 Bond Coeffs 

    1     268.0000        1.5290
    2     317.0000        1.5100
    3     340.0000        1.0900
    4     367.0000        1.0800
    5     469.0000        1.4000
    6     469.0000        1.4040
    7     520.0000        1.3700

 Angle Coeffs 

    1      33.0000      107.8000
    2      35.0000      109.5000
    3      35.0000      120.0000
    4      37.5000      110.7000
    5      58.3500      112.7000
    6      63.0000      114.0000
    7      63.0000      120.0000
    8      70.0000      120.0000
    9      70.0000      128.6000
   10      85.0000      117.3000
   11      85.0000      134.9000

 Dihedral Coeffs 

    1      -0.2500        0.0000       0.0000        0.0000
    2       0.0000        0.0000       0.0000        0.0000
    3       0.0000        0.0000       0.3000        0.0000
    4       0.0000        0.0000       0.4620        0.0000
    5       0.0000        7.2500       0.0000        0.0000
    6       0.8500       -0.2000       0.2000        0.0000

 Improper Coeffs 

    1       2.5000     -1     2

 Atoms 

    1     1     4     -0.03436      42.18100       5.02600     22.93600
    2     1     5     -0.01800      41.67800       5.65700     21.73300
    3     1     4     -0.05741      41.77300       7.05800     21.39600
    4     1     4     -0.13846      41.24400       7.56100     20.19600
    5     1     4     -0.12003      40.60700       6.72600     19.29500
    6     1     3     -0.21567      42.43400       8.15800     22.21600
    7     1     4     -0.14224      42.04800       3.64200     23.15500
    8     1     4     -0.12564      41.41900       2.82800     22.22800
    9     1     4     -0.13720      40.92500       3.42500     21.07500
   10     1     3     -0.14264      42.89200       5.69700     24.11000
   11     1     3     -0.18353      41.96000       6.22900     25.22100
   12     1     3     -0.18389      41.26700       5.14900     26.07300
   13     1     3     -0.19591      42.22700       4.35400     26.97200
   14     1     3     -0.19215      41.48800       3.33500     27.85200
   15     1     3     -0.18280      42.44500       2.53600     28.74800
   16     1     3     -0.18845      41.70600       1.51500     29.62600
   17     1     3     -0.24673      42.65900       0.71700     30.52200
   18     1     4     -0.07533      40.49700       5.36500     19.58000
   19     1     5     -0.03811      41.02600       4.81100     20.78300
   20     1     3     -0.20654      39.78400       4.54600     18.51700
   21     1     1      0.12846      41.32100       8.60900     19.94500
   22     1     1      0.13936      40.20900       7.14300     18.38100
   23     1     2      0.09389      42.07000       8.16300     23.23900
   24     1     2      0.09389      43.51600       8.03400     22.20900
   25     1     2      0.09389      42.23100       9.15600     21.82700
   26     1     1      0.12683      42.42500       3.18600     24.05900
   27     1     1      0.13774      41.31400       1.76700     22.39800
   28     1     1      0.13752      40.43500       2.77800     20.36300
   29     1     2      0.11117      43.61700       5.00700     24.54200
   30     1     2      0.11117      43.53800       6.48600     23.74100
   31     1     2      0.08618      41.18400       6.84800     24.76900
   32     1     2      0.08618      42.52500       6.89100     25.87800
   33     1     2      0.09875      40.69900       4.47500     25.42900
   34     1     2      0.09875      40.52400       5.64000     26.70300
   35     1     2      0.08536      42.96200       3.82700     26.36400
   36     1     2      0.08536      42.78800       5.04300     27.60600
   37     1     2      0.09999      40.75600       3.85400     28.47400
   38     1     2      0.09999      40.92300       2.64900     27.21900
   39     1     2      0.09319      43.00800       3.22200     29.38300
   40     1     2      0.09319      43.17800       2.01900     28.12800
   41     1     2      0.08994      40.97100       2.02800     30.25000
   42     1     2      0.08994      41.14400       0.82600     28.99500
   43     1     2      0.08410      42.11100       0.00000     31.13500
   44     1     2      0.08410      43.21200       1.37100     31.19700
   45     1     2      0.08410      43.38600       0.15800     29.93100
   46     1     2      0.09735      38.90900       4.05800     18.94600
   47     1     2      0.09735      40.45200       3.77700     18.12800
   48     1     2      0.09735      39.44700       5.15000     17.67400
   49     2     4     -0.03436      11.14200      42.16100     33.64900
   50     2     5     -0.01800      12.27000      43.03400     33.39900
   51     2     4     -0.05741      12.84100      43.98300     34.32500
   52     2     4     -0.13846      13.94000      44.78300     33.97100
   53     2     4     -0.12003      14.51200      44.68900     32.71500
   54     2     3     -0.21567      12.39500      44.25400     35.75600
   55     2     4     -0.14224      10.67700      41.25700     32.67500
   56     2     4     -0.12564      11.27900      41.17500     31.43100
   57     2     4     -0.13720      12.35700      42.01400     31.17800
   58     2     3     -0.14264      10.30100      42.07000     34.92100
   59     2     3     -0.18353       9.09500      43.03600     34.97800
   60     2     3     -0.18389       7.93800      42.70300     34.01800
   61     2     3     -0.19591       7.18500      41.41100     34.37500
   62     2     3     -0.19215       5.99900      41.15200     33.43500
   63     2     3     -0.18280       5.24700      39.86100     33.78500
   64     2     3     -0.18845       4.06300      39.60000     32.84200
   65     2     3     -0.24673       3.31100      38.31100     33.19100
   66     2     4     -0.07533      13.99400      43.78200     31.79100
   67     2     5     -0.03811      12.88300      42.94600     32.11100
   68     2     3     -0.20654      14.70500      43.76200     30.44800
   69     2     1      0.12846      14.36700      45.48900     34.66800
   70     2     1      0.13936      15.35600      45.31900     32.47200
   71     2     2      0.09389      11.32800      44.45200     35.80900
   72     2     2      0.09389      12.64600      43.40800     36.39500
   73     2     2      0.09389      12.87800      45.12800     36.19300
   74     2     1      0.12683       9.83100      40.61600     32.87500
   75     2     1      0.13774      10.92000      40.48400     30.68200
   76     2     1      0.13752      12.81300      41.93900     30.20300
   77     2     2      0.11117       9.95300      41.04600     35.05800
   78     2     2      0.11117      10.93800      42.20100     35.78800
   79     2     2      0.08618       9.43800      44.04600     34.75300
   80     2     2      0.08618       8.71100      43.07100     35.99900
   81     2     2      0.09875       8.30600      42.66000     32.99200
   82     2     2      0.09875       7.23300      43.53500     34.03700
   83     2     2      0.08536       7.86100      40.55800     34.33300
   84     2     2      0.08536       6.82700      41.47100     35.40400
   85     2     2      0.09999       5.30900      41.99700     33.47600
   86     2     2      0.09999       6.35600      41.09800     32.40500
   87     2     2      0.09319       4.88800      39.91600     34.81400
   88     2     2      0.09319       5.93600      39.01600     33.74500
   89     2     2      0.08994       3.37000      40.44300     32.88000
   90     2     2      0.08994       4.41800      39.54100     31.81300
   91     2     2      0.08410       2.47600      38.15000     32.50800
   92     2     2      0.08410       2.90500      38.34900     34.20300
   93     2     2      0.08410       3.96300      37.44000     33.12600
   94     2     2      0.09735      14.00200      44.00300     29.65000
   95     2     2      0.09735      15.11600      42.77100     30.25800
   96     2     2      0.09735      15.52500      44.47800     30.39400
   97     3     4     -0.03436      34.75800       5.55400     19.98900
   98     3     5     -0.01800      34.28200       5.83000     18.64900
   99     3     4     -0.05741      35.07700       5.85000     17.44500
  100     3     4     -0.13846      34.50600       6.13500     16.19300
  101     3     4     -0.12003      33.15600       6.41100     16.07500
  102     3     3     -0.21567      36.56900       5.56800     17.32200
  103     3     4     -0.14224      33.88600       5.54400     21.09500
  104     3     4     -0.12564      32.53600       5.80900     20.94400
  105     3     4     -0.13720      32.07100       6.08500     19.66400
  106     3     3     -0.14264      36.19100       5.25000     20.42200
  107     3     3     -0.18353      37.04400       6.48900     20.77300
  108     3     3     -0.18389      36.65300       7.21400     22.07400
  109     3     3     -0.19591      36.93500       6.40100     23.34800
  110     3     3     -0.19215      36.59300       7.18500     24.62400
  111     3     3     -0.18280      36.87100       6.37500     25.89800
  112     3     3     -0.18845      36.52500       7.15800     27.17400
  113     3     3     -0.24673      36.80200       6.35100     28.44700
  114     3     4     -0.07533      32.35000       6.39900     17.21400
  115     3     5     -0.03811      32.88700       6.10800     18.50300
  116     3     3     -0.20654      30.88400       6.71100     16.96200
  117     3     1      0.12846      35.10400       6.14400     15.29400
  118     3     1      0.13936      32.74600       6.62700     15.09800
  119     3     2      0.09389      37.14500       6.16700     18.02200
  120     3     2      0.09389      36.76700       4.51000     17.49300
  121     3     2      0.09389      36.96700       5.80500     16.33600
  122     3     1      0.12683      34.25700       5.34000     22.08900
  123     3     1      0.13774      31.86900       5.80600     21.79200
  124     3     1      0.13752      31.01700       6.29300     19.56300
  125     3     2      0.11117      36.17900       4.56500     21.27000
  126     3     2      0.11117      36.68000       4.64900     19.66500
  127     3     2      0.08618      36.97900       7.20900     19.95600
  128     3     2      0.08618      38.09400       6.19800     20.83000
  129     3     2      0.09875      35.60300       7.50900     22.03400
  130     3     2      0.09875      37.21300       8.14800     22.12400
  131     3     2      0.08536      36.36200       5.47500     23.33900
  132     3     2      0.08536      37.98800       6.11300     23.37000
  133     3     2      0.09999      37.17100       8.11100     24.64900
  134     3     2      0.09999      35.54200       7.47800     24.60000
  135     3     2      0.09319      37.92200       6.08400     25.92300
  136     3     2      0.09319      36.29600       5.44900     25.87300
  137     3     2      0.08994      37.09900       8.08600     27.20400
  138     3     2      0.08994      35.47400       7.44800     27.15400
  139     3     2      0.08410      36.54900       6.92800     29.33700
  140     3     2      0.08410      37.85500       6.07500     28.52200
  141     3     2      0.08410      36.21500       5.43300     28.47200
  142     3     2      0.09735      30.58600       7.58900     17.53600
  143     3     2      0.09735      30.26500       5.86900     17.27200
  144     3     2      0.09735      30.67000       6.91200     15.91200
  145     4     4     -0.03436      12.58400      27.20900     25.07200
  146     4     5     -0.01800      12.89600      27.14500     23.65900
  147     4     4     -0.05741      11.97600      27.36000     22.56800
  148     4     4     -0.13846      12.39100      27.27000     21.22900
  149     4     4     -0.12003      13.70300      26.96600     20.91100
  150     4     3     -0.21567      10.49800      27.71700     22.66800
  151     4     4     -0.14224      13.56900      26.99800     26.05600
  152     4     4     -0.12564      14.87700      26.71000     25.70800
  153     4     4     -0.13720      15.18500      26.63800     24.35500
  154     4     3     -0.14264      11.22600      27.49000     25.71300
  155     4     3     -0.18353      10.34600      26.24300     25.95200
  156     4     3     -0.18389      10.83300      25.29400     27.06200
  157     4     3     -0.19591      10.73700      25.89000     28.47700
  158     4     3     -0.19215      11.16900      24.88900     29.55800
  159     4     3     -0.18280      11.07800      25.48100     30.97100
  160     4     3     -0.18845      11.51300      24.48100     32.05300
  161     4     3     -0.24673      11.42200      25.07100     33.46400
  162     4     4     -0.07533      14.62600      26.75500     21.93600
  163     4     5     -0.03811      14.24900      26.84300     23.30800
  164     4     3     -0.20654      16.03600      26.43300     21.46800
  165     4     1      0.12846      11.70000      27.43600     20.41600
  166     4     1      0.13936      13.99200      26.90300     19.87200
  167     4     2      0.09389       9.96800      27.03000     23.32100
  168     4     2      0.09389      10.38100      28.73700     23.03100
  169     4     2      0.09389       9.98300      27.66600     21.70800
  170     4     1      0.12683      13.32000      27.04500     27.10600
  171     4     1      0.13774      15.63200      26.54400     26.46200
  172     4     1      0.13752      16.20900      26.41000     24.10000
  173     4     2      0.11117      11.36800      28.02100     26.65400
  174     4     2      0.11117      10.69300      28.22900     25.12600
  175     4     2      0.08618      10.28200      25.67000     25.02600
  176     4     2      0.08618       9.32700      26.56000     26.17800
  177     4     2      0.09875      11.85400      24.97000     26.85300
  178     4     2      0.09875      10.22900      24.38700     27.02300
  179     4     2      0.08536      11.35800      26.78100     28.55300
  180     4     2      0.08536       9.71100      26.21000     28.66700
  181     4     2      0.09999      10.54600      23.99400     29.49800
  182     4     2      0.09999      12.19300      24.56400     29.36500
  183     4     2      0.09319      10.05400      25.80400     31.16500
  184     4     2      0.09319      11.69900      26.37600     31.03200
  185     4     2      0.08994      10.89400      23.58400     31.99700
  186     4     2      0.08994      12.53800      24.15800     31.86400
  187     4     2      0.08410      11.73600      24.34200     34.21200
  188     4     2      0.08410      10.40100      25.37000     33.70500
  189     4     2      0.08410      12.06000      25.94800     33.57100
  190     4     2      0.09735      16.34400      25.46000     21.85200
  191     4     2      0.09735      16.73200      27.18600     21.83800
  192     4     2      0.09735      16.12400      26.40500     20.38200
  193     5     4     -0.03436      26.84600      23.04600      4.31600
  194     5     5     -0.01800      25.64600      22.40800      4.81600
  195     5     4     -0.05741      24.39300      22.27000      4.11400
  196     5     4     -0.13846      23.28900      21.63000      4.70200
  197     5     4     -0.12003      23.36600      21.11400      5.98400
  198     5     3     -0.21567      24.07200      22.74200      2.70200
  199     5     4     -0.14224      28.02500      23.11000      5.08400
  200     5     4     -0.12564      28.07700      22.57000      6.35800
  201     5     4     -0.13720      26.92800      21.96400      6.85100
  202     5     3     -0.14264      27.04200      23.72600      2.96200
  203     5     3     -0.18353      26.67300      25.22600      2.92400
  204     5     3     -0.18389      27.62700      26.16000      3.69200
  205     5     3     -0.19591      29.02500      26.27500      3.06200
  206     5     3     -0.19215      29.92200      27.26500      3.81900
  207     5     3     -0.18280      31.32000      27.38000      3.19600
  208     5     3     -0.18845      32.21800      28.36900      3.95500
  209     5     3     -0.24673      33.61400      28.48500      3.33300
  210     5     4     -0.07533      24.56100      21.22300      6.69600
  211     5     5     -0.03811      25.70800      21.85800      6.13500
  212     5     3     -0.20654      24.53000      20.61500      8.08900
  213     5     1      0.12846      22.35400      21.52400      4.17200
  214     5     1      0.13936      22.50000      20.62800      6.40900
  215     5     2      0.09389      24.33000      23.78800      2.56600
  216     5     2      0.09389      24.60400      22.13300      1.97100
  217     5     2      0.09389      23.01200      22.66700      2.45900
  218     5     1      0.12683      28.91000      23.59300      4.69900
  219     5     1      0.13774      28.97900      22.62300      6.94900
  220     5     1      0.13752      26.98500      21.55100      7.84700
  221     5     2      0.11117      28.07400      23.59700      2.63300
  222     5     2      0.11117      26.50100      23.17800      2.19800
  223     5     2      0.08618      25.67200      25.35600      3.33800
  224     5     2      0.08618      26.61200      25.55500      1.88600
  225     5     2      0.09875      27.70100      25.84100      4.73300
  226     5     2      0.09875      27.17500      27.15200      3.72500
  227     5     2      0.08536      29.51100      25.30100      3.04500
  228     5     2      0.08536      28.93100      26.59100      2.02200
  229     5     2      0.09999      29.44800      28.24900      3.83300
  230     5     2      0.09999      30.01200      26.95200      4.86100
  231     5     2      0.09319      31.22900      27.69500      2.15500
  232     5     2      0.09319      31.79300      26.39800      3.17900
  233     5     2      0.08994      31.74900      29.35400      3.97300
  234     5     2      0.08994      32.31300      28.05500      4.99500
  235     5     2      0.08410      34.23100      29.19200      3.89000
  236     5     2      0.08410      33.56200      28.83500      2.30100
  237     5     2      0.08410      34.13100      27.52500      3.33400
  238     5     2      0.09735      24.75500      21.37900      8.83400
  239     5     2      0.09735      25.27800      19.82500      8.16800
  240     5     2      0.09735      23.56200      20.18200      8.34000
  241     6     4     -0.03436      27.12300      39.16700      6.02800
  242     6     5     -0.01800      26.85700      37.84000      6.54300
  243     6     4     -0.05741      26.41800      36.69700      5.77900
  244     6     4     -0.13846      26.18900      35.45200      6.38800
  245     6     4     -0.12003      26.37200      35.28200      7.74900
  246     6     3     -0.21567      26.16300      36.63600      4.27800
  247     6     4     -0.14224      27.56500      40.21000      6.86500
  248     6     4     -0.12564      27.75400      40.00600      8.22100
  249     6     4     -0.13720      27.49400      38.73900      8.72700
  250     6     3     -0.14264      26.97600      39.65200      4.58600
  251     6     3     -0.18353      25.57600      40.19000      4.21700
  252     6     3     -0.18389      25.19600      41.53700      4.85900
  253     6     3     -0.19591      26.01800      42.72800      4.34000
  254     6     3     -0.19215      25.56300      44.05900      4.95500
  255     6     3     -0.18280      26.38500      45.25000      4.44200
  256     6     3     -0.18845      25.93100      46.58100      5.06000
  257     6     3     -0.24673      26.75000      47.77200      4.54900
  258     6     4     -0.07533      26.79900      36.36100      8.52300
  259     6     5     -0.03811      27.05100      37.64000      7.94500
  260     6     3     -0.20654      26.97200      36.05500     10.00200
  261     6     1      0.12846      25.86500      34.59700      5.81200
  262     6     1      0.13936      26.18700      34.31200      8.18800
  263     6     2      0.09389      25.49700      37.43100      3.95700
  264     6     2      0.09389      27.10400      36.70000      3.73300
  265     6     2      0.09389      25.68400      35.70800      3.96600
  266     6     1      0.12683      27.75500      41.19600      6.46700
  267     6     1      0.13774      28.08900      40.80600      8.86400
  268     6     1      0.13752      27.64400      38.59700      9.78600
  269     6     2      0.11117      27.72600      40.41600      4.37900
  270     6     2      0.11117      27.27600      38.86400      3.90600
  271     6     2      0.08618      24.82400      39.45500      4.50900
  272     6     2      0.08618      25.50000      40.27900      3.13200
  273     6     2      0.09875      25.27000      41.46500      5.94500
  274     6     2      0.09875      24.14100      41.72500      4.65400
  275     6     2      0.08536      27.07400      42.58000      4.56000
  276     6     2      0.08536      25.93400      42.78200      3.25300
  277     6     2      0.09999      24.50700      44.22300      4.73100
  278     6     2      0.09999      25.64100      44.00300      6.04200
  279     6     2      0.09319      26.30400      45.30700      3.35600
  280     6     2      0.09319      27.44000      45.08700      4.66400
  281     6     2      0.08994      24.87500      46.75000      4.84000
  282     6     2      0.08994      26.01300      46.52900      6.14700
  283     6     2      0.08410      26.40900      48.70300      5.00200
  284     6     2      0.08410      26.66100      47.88000      3.46700
  285     6     2      0.08410      27.80800      47.65800      4.78600
  286     6     2      0.09735      26.32600      36.70400     10.59500
  287     6     2      0.09735      28.00500      36.23100     10.30100
  288     6     2      0.09735      26.72400      35.02300     10.25200
  289     7     4     -0.03436      30.24200      36.11800     30.05100
  290     7     5     -0.01800      30.94000      37.32600     29.66000
  291     7     4     -0.05741      31.21300      38.46800     30.49900
  292     7     4     -0.13846      31.90000      39.59100     30.00800
  293     7     4     -0.12003      32.33600      39.64000     28.69600
  294     7     3     -0.21567      30.84700      38.63900     31.96800
  295     7     4     -0.14224      30.04500      35.05300     29.15100
  296     7     4     -0.12564      30.50500      35.12500     27.84800
  297     7     4     -0.13720      31.16800      36.28300     27.45900
  298     7     3     -0.14264      29.62700      35.80000     31.41300
  299     7     3     -0.18353      28.16400      36.26400     31.59400
  300     7     3     -0.18389      27.11800      35.48000     30.78000
  301     7     3     -0.19591      26.93300      34.02500     31.24100
  302     7     3     -0.19215      25.83500      33.30100     30.44700
  303     7     3     -0.18280      25.65000      31.84700     30.90200
  304     7     3     -0.18845      24.55400      31.12200     30.10600
  305     7     3     -0.24673      24.36700      29.66900     30.55900
  306     7     4     -0.07533      32.09500      38.55500     27.85200
  307     7     5     -0.03811      31.40800      37.39300     28.31000
  308     7     3     -0.20654      32.62300      38.71900     26.43600
  309     7     1      0.12846      32.10700      40.44100     30.64100
  310     7     1      0.13936      32.86000      40.51800     28.34800
  311     7     2      0.09389      29.79400      38.43900     32.14000
  312     7     2      0.09389      31.45500      37.97900     32.58600
  313     7     2      0.09389      31.01700      39.65200     32.33200
  314     7     1      0.12683      29.51800      34.16100     29.45700
  315     7     1      0.13774      30.35100      34.31100     27.15600
  316     7     1      0.13752      31.51900      36.32400     26.43900
  317     7     2      0.11117      29.69500      34.72900     31.60500
  318     7     2      0.11117      30.25600      36.20200     32.19900
  319     7     2      0.08618      28.08700      37.31500     31.31500
  320     7     2      0.08618      27.90000      36.21500     32.65100
  321     7     2      0.09875      27.37000      35.51600     29.71900
  322     7     2      0.09875      26.16300      35.99900     30.86600
  323     7     2      0.08536      27.86600      33.47500     31.13400
  324     7     2      0.08536      26.68400      34.00900     32.30300
  325     7     2      0.09999      24.89100      33.83900     30.55500
  326     7     2      0.09999      26.08100      33.32200     29.38400
  327     7     2      0.09319      25.40200      31.82700     31.96400
  328     7     2      0.09319      26.59300      31.30900     30.79600
  329     7     2      0.08994      23.60800      31.65600     30.21000
  330     7     2      0.08994      24.80000      31.13800     29.04300
  331     7     2      0.08410      23.58500      29.17800     29.98000
  332     7     2      0.08410      24.08100      29.61500     31.61100
  333     7     2      0.08410      25.28400      29.09200     30.43300
  334     7     2      0.09735      31.80400      38.64300     25.72100
  335     7     2      0.09735      33.34800      37.93600     26.21500
  336     7     2      0.09735      33.11400      39.68000     26.27800
  337     8     4     -0.03436      36.75600      20.32100      5.81600
  338     8     5     -0.01800      38.18500      20.51100      5.67200
  339     8     4     -0.05741      38.90800      20.66900      4.43300
  340     8     4     -0.13846      40.30100      20.84500      4.41400
  341     8     4     -0.12003      41.03100      20.86900      5.58900
  342     8     3     -0.21567      38.32600      20.69000      3.02500
  343     8     4     -0.14224      36.15100      20.19400      7.08100
  344     8     4     -0.12564      36.90500      20.23700      8.24100
  345     8     4     -0.13720      38.27800      20.41000      8.11400
  346     8     3     -0.14264      35.71500      20.22200      4.70300
  347     8     3     -0.18353      35.47600      18.79700      4.15500
  348     8     3     -0.18389      34.75100      17.83500      5.11400
  349     8     3     -0.19591      33.28200      18.20500      5.37400
  350     8     3     -0.19215      32.57900      17.18400      6.28000
  351     8     3     -0.18280      31.11200      17.55200      6.54500
  352     8     3     -0.18845      30.40900      16.53300      7.45400
  353     8     3     -0.24673      28.94500      16.89900      7.72000
  354     8     4     -0.07533      40.37000      20.72400      6.80900
  355     8     5     -0.03811      38.95600      20.54900      6.87500
  356     8     3     -0.20654      41.27200      20.77200      8.03200
  357     8     1      0.12846      40.83800      20.96800      3.48400
  358     8     1      0.13936      42.10100      21.00600      5.54100
  359     8     2      0.09389      37.69200      19.82600      2.84500
  360     8     2      0.09389      37.75800      21.60500      2.86600
  361     8     2      0.09389      39.09100      20.65800      2.24900
  362     8     1      0.12683      35.08500      20.04900      7.17200
  363     8     1      0.13774      36.44300      20.13600      9.21200
  364     8     1      0.13752      38.85200      20.43900      9.02800
  365     8     2      0.11117      34.76900      20.64200      5.04800
  366     8     2      0.11117      35.97500      20.90300      3.90000
  367     8     2      0.08618      36.43700      18.35100      3.89500
  368     8     2      0.08618      34.91400      18.86000      3.22300
  369     8     2      0.09875      35.30000      17.76400      6.05400
  370     8     2      0.09875      34.78900      16.83400      4.68200
  371     8     2      0.08536      33.21800      19.18900      5.83500
  372     8     2      0.08536      32.75000      18.27400      4.42300
  373     8     2      0.09999      32.62700      16.19400      5.82200
  374     8     2      0.09999      33.11300      17.11000      7.22900
  375     8     2      0.09319      30.57700      17.62300      5.59700
  376     8     2      0.09319      31.06200      18.54200      7.00200
  377     8     2      0.08994      30.45600      15.54100      7.00100
  378     8     2      0.08994      30.94000      16.46100      8.40500
  379     8     2      0.08410      28.46900      16.16000      8.36600
  380     8     2      0.08410      28.37100      16.94100      6.79300
  381     8     2      0.08410      28.86000      17.86900      8.20900
  382     8     2      0.09735      41.18300      19.84400      8.59700
  383     8     2      0.09735      40.98000      21.59900      8.67900
  384     8     2      0.09735      42.32300      20.90600      7.77600
  385     9     4     -0.03436      38.27100      15.53200     12.12600
  386     9     5     -0.01800      38.26600      16.97400     12.26000
  387     9     4     -0.05741      37.98700      17.93000     11.21500
  388     9     4     -0.13846      38.01200      19.31300     11.46100
  389     9     4     -0.12003      38.31300      19.80600     12.71900
  390     9     3     -0.21567      37.62100      17.63000      9.76700
  391     9     4     -0.14224      38.54200      14.68900     13.22100
  392     9     4     -0.12564      38.82500      15.21000     14.47200
  393     9     4     -0.13720      38.83100      16.59300     14.60900