LAMMPS data file of the system for full atom style

    4992 atoms
    5304 bonds
    9360 angles
   14040 dihedrals
    1872 impropers

    4 atom types
    5 bond types
    7 angle types
    6 dihedral types
    1 improper types

    0.000000    50.000000 xlo xhi
    0.000000    50.000000 ylo yhi
    0.000000    50.000000 zlo zhi

 Masses 

    1       1.0080
    2       1.0080
    3      12.0110
    4      12.0110

 Pair Coeffs 

    1       0.0300       2.4200
    2       0.0300       2.5000
    3       0.0660       3.5000
    4       0.0700       3.5500

 Bond Coeffs 

    1     268.0000        1.5290
    2     317.0000        1.5100
    3     340.0000        1.0900
    4     367.0000        1.0800
    5     469.0000        1.4000

 Angle Coeffs 

    1      33.0000      107.8000
    2      35.0000      109.5000
    3      35.0000      120.0000
    4      37.5000      110.7000
    5      63.0000      114.0000
    6      63.0000      120.0000
    7      70.0000      120.0000

 Dihedral Coeffs 

    1      -1.6970       -0.4560       0.5850        0.0000
    2      -0.2500        0.0000       0.0000        0.0000
    3       0.0000        0.0000       0.0000        0.0000
    4       0.0000        0.0000       0.3000        0.0000
    5       0.0000        0.0000       0.4620        0.0000
    6       0.0000        7.2500       0.0000        0.0000

 Improper Coeffs 

    1       2.5000     -1     2

 Atoms 

    1     1     4     -0.05268      46.85300      16.00000     27.25700
    2     1     4     -0.15229      46.64100      15.63100     25.91100
    3     1     4     -0.04416      46.76500      15.01400     28.27300
    4     1     4     -0.15229      46.46800      13.67900     27.92100
    5     1     3     -0.13408      46.96000      15.35400     29.74200
    6     1     3     -0.13874      45.78600      16.11700     30.38200
    7     1     4     -0.04720      46.08000      17.57500     30.69700
    8     1     4     -0.05477      46.16600      18.56000     29.68200
    9     1     4     -0.15121      46.46300      19.89500     30.03300
   10     1     4     -0.13939      46.66700      20.25500     31.37800
   11     1     4     -0.13939      46.58200      19.27800     32.38400
   12     1     4     -0.15121      46.29100      17.94500     32.04400
   13     1     3     -0.14216      45.97200      18.22000     28.21300
   14     1     3     -0.14531      47.14600      17.45800     27.57400
   15     1     4     -0.13852      46.26500      13.31900     26.57700
   16     1     4     -0.13852      46.35200      14.29700     25.56900
   17     1     1      0.13527      46.04000      12.29500     26.31900
   18     1     1      0.13527      46.19200      14.02500     24.53600
   19     1     1      0.13721      46.69700      16.37100     25.12700
   20     1     1      0.13721      46.39200      12.92000     28.68500
   21     1     2      0.10246      47.11700      14.42600     30.29200
   22     1     2      0.10246      47.89100      15.90700     29.86800
   23     1     2      0.10215      44.89900      16.05200     29.75100
   24     1     2      0.10215      45.50400      15.61300     31.30700
   25     1     1      0.13806      46.53900      20.65500     29.26900
   26     1     1      0.13419      46.89200      21.28000     31.63500
   27     1     1      0.13419      46.74100      19.55100     33.41800
   28     1     1      0.13806      46.23600      17.20400     32.82800
   29     1     2      0.10436      45.04100      17.66500     28.08700
   30     1     2      0.10436      45.81400      19.14800     27.66300
   31     1     2      0.10725      48.03400      17.52300     28.20500
   32     1     2      0.10726      47.43000      17.96200     26.64900
   33     2     4     -0.05268      22.59300      35.70600      2.74100
   34     2     4     -0.15229      21.29300      36.23600      2.59800
   35     2     4     -0.04416      22.84500      34.36300      2.36200
   36     2     4     -0.15229      21.79000      33.57800      1.84600
   37     2     3     -0.13408      24.21800      33.72800      2.51400
   38     2     3     -0.13874      24.60700      33.39000      3.96400
   39     2     4     -0.04720      25.69400      34.27900      4.54800
   40     2     4     -0.05477      25.44200      35.62200      4.92800
   41     2     4     -0.15121      26.49600      36.40600      5.44400
   42     2     4     -0.13939      27.78800      35.86800      5.58900
   43     2     4     -0.13939      28.03700      34.53700      5.21200
   44     2     4     -0.15121      26.99500      33.74900      4.69200
   45     2     3     -0.14216      24.06900      36.25700      4.77500
   46     2     3     -0.14531      23.68100      36.59400      3.32500
   47     2     4     -0.13852      20.49900      34.11700      1.70100
   48     2     4     -0.13852      20.24900      35.44900      2.07700
   49     2     1      0.13527      19.70000      33.50900      1.30300
   50     2     1      0.13527      19.25800      35.86500      1.97100
   51     2     1      0.13721      21.08400      37.25500      2.88900
   52     2     1      0.13721      21.96500      32.55200      1.55900
   53     2     2      0.10246      24.24100      32.81200      1.92200
   54     2     2      0.10246      24.96900      34.37000      2.05500
   55     2     2      0.10215      23.73000      33.41500      4.61200
   56     2     2      0.10215      24.94900      32.35600      4.00400
   57     2     1      0.13806      26.32100      37.43300      5.73100
   58     2     1      0.13419      28.58600      36.47700      5.98600
   59     2     1      0.13419      29.02900      34.12100      5.31900
   60     2     1      0.13806      27.20400      32.73000      4.40000
   61     2     2      0.10436      23.31700      35.61300      5.23400
   62     2     2      0.10436      24.04600      37.17200      5.36700
   63     2     2      0.10725      24.55800      36.57000      2.67700
   64     2     2      0.10726      23.33900      37.62900      3.28400
   65     3     4     -0.05268      41.57100      43.03000     44.56000
   66     3     4     -0.15229      42.31900      44.20200     44.31700
   67     3     4     -0.04416      40.25800      43.13600     45.08500
   68     3     4     -0.15229      39.72000      44.41400     45.35500
   69     3     3     -0.13408      39.41200      41.91000     45.39000
   70     3     3     -0.13874      39.84800      41.13000     46.64300
   71     3     4     -0.04720      40.49300      39.78400     46.35300
   72     3     4     -0.05477      41.80600      39.67700     45.82900
   73     3     4     -0.15121      42.34400      38.40000     45.55900
   74     3     4     -0.13939      41.59300      37.23700     45.81100
   75     3     4     -0.13939      40.29200      37.34200     46.32900
   76     3     4     -0.15121      39.74500      38.61100     46.59700
   77     3     3     -0.14216      42.65100      40.90300     45.52300
   78     3     3     -0.14531      42.21500      41.68200     44.27100
   79     3     4     -0.13852      40.47000      45.57700     45.10400
   80     3     4     -0.13852      41.77300      45.47100     44.58300
   81     3     1      0.13527      40.04900      46.54900     45.31200
   82     3     1      0.13527      42.35300      46.36200     44.39200
   83     3     1      0.13721      43.32300      44.13600     43.92400
   84     3     1      0.13721      38.72400      44.51000     45.76200
   85     3     2      0.10246      38.37700      42.23000     45.51900
   86     3     2      0.10246      39.39000      41.25600     44.51900
   87     3     2      0.10215      40.52200      41.73200     47.25400
   88     3     2      0.10215      38.97600      40.96600     47.27600
   89     3     1      0.13806      43.34100      38.30400     45.15200
   90     3     1      0.13419      42.01600      36.26500     45.60100
   91     3     1      0.13419      39.71100      36.45100     46.52100
   92     3     1      0.13806      38.74100      38.67600     46.98900
   93     3     2      0.10436      42.67200      41.55800     46.39500
   94     3     2      0.10436      43.68600      40.58300     45.39500
   95     3     2      0.10725      41.54100      41.08000     43.66000
   96     3     2      0.10726      43.08700      41.84600     43.63700
   97     4     4     -0.05268       6.95300      30.99300      7.58900
   98     4     4     -0.15229       5.86000      30.10000      7.58900
   99     4     4     -0.04416       7.87500      30.96600      8.66600
  100     4     4     -0.15229       7.68500      30.04600      9.72000
  101     4     3     -0.13408       9.06000      31.91800      8.73400
  102     4     3     -0.13874       8.69100      33.37000      9.08700
  103     4     4     -0.04720       8.82700      34.35200      7.93400
  104     4     4     -0.05477       7.90400      34.37900      6.85800
  105     4     4     -0.15121       8.09400      35.29900      5.80400
  106     4     4     -0.13939       9.18300      36.18900      5.81500
  107     4     4     -0.13939      10.09800      36.16200      6.88200
  108     4     4     -0.15121       9.92000      35.24600      7.93400
  109     4     3     -0.14216       6.72100      33.42700      6.78900
  110     4     3     -0.14531       7.09100      31.97600      6.43600
  111     4     4     -0.13852       6.59600      29.15600      9.70800
  112     4     4     -0.13852       5.68200      29.18200      8.64000
  113     4     1      0.13527       6.46100      28.45500     10.51900
  114     4     1      0.13527       4.84200      28.50300      8.63000
  115     4     1      0.13721       5.14500      30.11300      6.77900
  116     4     1      0.13721       8.37600      30.02000     10.55000
  117     4     2      0.10246       9.76000      31.54300      9.48100
  118     4     2      0.10246       9.61300      31.88000      7.79700
  119     4     2      0.10215       7.67900      33.42100      9.49100
  120     4     2      0.10215       9.33000      33.70600      9.90400
  121     4     1      0.13806       7.40300      35.32600      4.97300
  122     4     1      0.13419       9.31800      36.89000      5.00400
  123     4     1      0.13419      10.93800      36.84300      6.89200
  124     4     1      0.13806      10.63500      35.23200      8.74300
  125     4     2      0.10436       6.16800      33.46500      7.72900
  126     4     2      0.10436       6.02000      33.80300      6.04300
  127     4     2      0.10725       8.10200      31.92500      6.03200
  128     4     2      0.10726       6.45200      31.63900      5.61900
  129     5     4     -0.05268      42.48900      38.49500     36.77800
  130     5     4     -0.15229      42.81700      39.85200     36.57000
  131     5     4     -0.04416      43.35500      37.48500     36.28700
  132     5     4     -0.15229      44.53100      37.85300     35.59800
  133     5     3     -0.13408      43.04500      36.00600     36.46000
  134     5     3     -0.13874      41.91900      35.48000     35.55400
  135     5     4     -0.04720      40.62600      35.14900     36.28300
  136     5     4     -0.05477      39.76000      36.15800     36.77300
  137     5     4     -0.15121      38.58500      35.79100     37.46200
  138     5     4     -0.13939      38.26300      34.43500     37.66100
  139     5     4     -0.13939      39.12200      33.43400     37.17600
  140     5     4     -0.15121      40.29800      33.79100     36.49200
  141     5     3     -0.14216      40.07100      37.63700     36.60100
  142     5     3     -0.14531      41.19700      38.16200     37.50800
  143     5     4     -0.13852      44.85200      39.20800     35.40000
  144     5     4     -0.13852      43.99400      40.21000     35.88700
  145     5     1      0.13527      45.75500      39.47900     34.87300
  146     5     1      0.13527      44.23500      41.25200     35.73300
  147     5     1      0.13721      42.16300      40.63200     36.93100
  148     5     1      0.13721      45.19600      37.09500     35.21300
  149     5     2      0.10246      43.95400      35.43800     36.25700
  150     5     2      0.10246      42.82300      35.80000     37.50700
  151     5     2      0.10215      41.71200      36.18800     34.75000
  152     5     2      0.10215      42.26800      34.58100     35.04500
  153     5     1      0.13806      37.91900      36.54900     37.84800
  154     5     1      0.13419      37.36000      34.16500     38.18900
  155     5     1      0.13419      38.87900      32.39200     37.32900
  156     5     1      0.13806      40.95100      33.01000     36.13100
  157     5     2      0.10436      40.29400      37.84200     35.55300
  158     5     2      0.10436      39.16200      38.20400     36.80400
  159     5     2      0.10725      41.40400      37.45400     38.31100
  160     5     2      0.10726      40.84700      39.06100     38.01700
  161     6     4     -0.05268      37.47600      46.20300      9.92700
  162     6     4     -0.15229      38.82100      46.62800      9.96900
  163     6     4     -0.04416      36.44000      47.17000      9.87100
  164     6     4     -0.15229      36.77200      48.54300      9.85700
  165     6     3     -0.13408      34.97200      46.77600      9.84600
  166     6     3     -0.13874      34.42500      46.26900     11.19300
  167     6     4     -0.04720      34.13300      44.77800     11.23300
  168     6     4     -0.05477      35.16900      43.81100     11.29000
  169     6     4     -0.15121      34.83800      42.43900     11.30300
  170     6     4     -0.13939      33.49300      42.02400     11.26700
  171     6     4     -0.13939      32.46700      42.98200     11.21000
  172     6     4     -0.15121      32.78700      44.35200     11.19100
  173     6     3     -0.14216      36.63700      44.20600     11.31300
  174     6     3     -0.14531      37.18200      44.71100      9.96700
  175     6     4     -0.13852      38.11600      48.95700      9.89400
  176     6     4     -0.13852      39.14300      47.99800      9.94900
  177     6     1      0.13527      38.35800      50.00900      9.88200
  178     6     1      0.13527      40.17600      48.31300      9.98200
  179     6     1      0.13721      39.62100      45.90400     10.02000
  180     6     1      0.13721      35.99300      49.29000      9.82200
  181     6     2      0.10246      34.38800      47.64200      9.53400
  182     6     2      0.10246      34.80600      46.03700      9.06300
  183     6     2      0.10215      35.10600      46.52900     12.00500
  184     6     2      0.10215      33.50500      46.80800     11.42300
  185     6     1      0.13806      35.61600      41.69100     11.33900
  186     6     1      0.13419      33.25200      40.97100     11.27900
  187     6     1      0.13419      31.43400      42.66700     11.17900
  188     6     1      0.13806      31.98800      45.07600     11.14000
  189     6     2      0.10436      36.80200      44.94600     12.09800
  190     6     2      0.10436      37.22000      43.34000     11.62700
  191     6     2      0.10725      36.50200      44.45200      9.15500
  192     6     2      0.10726      38.10200      44.17300      9.73600
  193     7     4     -0.05268      11.36100       8.49000     12.73400
  194     7     4     -0.15229      11.27900       9.89900     12.70200
  195     7     4     -0.04416      10.54000       7.76400     13.63400
  196     7     4     -0.15229       9.65300       8.46300     14.48300
  197     7     3     -0.13408      10.59900       6.24800     13.73200
  198     7     3     -0.13874      11.85300       5.70300     14.43800
  199     7     4     -0.04720      12.84500       5.01100     13.51600
  200     7     4     -0.05477      13.66600       5.73700     12.61800
  201     7     4     -0.15121      14.55300       5.03900     11.76900
  202     7     4     -0.13939      14.63200       3.63500     11.81300
  203     7     4     -0.13939      13.81700       2.91500     12.70300
  204     7     4     -0.15121      12.92700       3.60200     13.54900
  205     7     3     -0.14216      13.60600       7.25300     12.51900
  206     7     3     -0.14531      12.35300       7.79700     11.81300
  207     7     4     -0.13852       9.57400       9.86700     14.43900
  208     7     4     -0.13852      10.38800      10.58600     13.54600
  209     7     1      0.13527       8.89100      10.39100     15.09100
  210     7     1      0.13527      10.33300      11.66500     13.51300
  211     7     1      0.13721      11.90400      10.46600     12.02700
  212     7     1      0.13721       9.02700       7.92300     15.17700
  213     7     2      0.10246       9.71500       5.90300     14.27100
  214     7     2      0.10246      10.50000       5.81400     12.73800
  215     7     2      0.10215      12.36000       6.49800     14.98700
  216     7     2      0.10215      11.54300       4.99300     15.20600
  217     7     1      0.13806      15.18000       5.57800     11.07400
  218     7     1      0.13419      15.31500       3.11100     11.16000
  219     7     1      0.13419      13.87300       1.83600     12.73700
  220     7     1      0.13806      12.30200       3.03500     14.22300
  221     7     2      0.10436      13.70500       7.68700     13.51500
  222     7     2      0.10436      14.49000       7.59700     11.98100
  223     7     2      0.10725      11.84600       7.00200     11.26400
  224     7     2      0.10726      12.66200       8.50600     11.04400
  225     8     4     -0.05268      15.23300      31.53700     11.43400
  226     8     4     -0.15229      15.40200      30.83000     10.22400
  227     8     4     -0.04416      14.37500      32.66600     11.46900
  228     8     4     -0.15229      13.70300      33.06300     10.29200
  229     8     3     -0.13408      14.17000      33.48200     12.73500
  230     8     3     -0.13874      15.36200      34.37700     13.11700
  231     8     4     -0.04720      16.13100      33.91300     14.34300
  232     8     4     -0.05477      16.99000      32.78600     14.30800
  233     8     4     -0.15121      17.66200      32.38800     15.48400
  234     8     4     -0.13939      17.49200      33.10200     16.68500
  235     8     4     -0.13939      16.64000      34.21900     16.72000
  236     8     4     -0.15121      15.96200      34.62000     15.55400
  237     8     3     -0.14216      17.19400      31.96900     13.04200
  238     8     3     -0.14531      16.00200      31.07400     12.66200
  239     8     4     -0.13852      13.87300      32.34900      9.09200
  240     8     4     -0.13852      14.72400      31.23000      9.05800
  241     8     1      0.13527      13.35300      32.66000      8.19800
  242     8     1      0.13527      14.86000      30.68100      8.13700
  243     8     1      0.13721      16.05800      29.97300     10.18000
  244     8     1      0.13721      13.05200      33.92400     10.30200
  245     8     2      0.10246      13.28800      34.10900     12.60100
  246     8     2      0.10246      13.91000      32.81700     13.55900
  247     8     2      0.10215      16.04700      34.48200     12.27500
  248     8     2      0.10215      14.99600      35.38800     13.30100
  249     8     1      0.13806      18.31400      31.52600     15.47500
  250     8     1      0.13419      18.01200      32.78900     17.57900
  251     8     1      0.13419      16.50500      34.76900     17.64100
  252     8     1      0.13806      15.30600      35.47700     15.59800
  253     8     2      0.10436      17.45300      32.63500     12.21700
  254     8     2      0.10436      18.07600      31.34300     13.17600
  255     8     2      0.10725      15.31700      30.96900     13.50300
  256     8     2      0.10726      16.36700      30.06300     12.47800
  257     9     4     -0.05268      14.93300      19.90200     33.42200
  258     9     4     -0.15229      16.13700      19.44500     33.99900
  259     9     4     -0.04416      14.96200      21.00000     32.52500
  260     9     4     -0.15229      16.19700      21.61700     32.22300
  261     9     3     -0.13408      13.69700      21.55400     31.88800
  262     9     3     -0.13874      12.80300      22.36100     32.84600
  263     9     4     -0.04720      11.50400      21.66900     33.22900
  264     9     4     -0.05477      11.47400      20.57200     34.12600
  265     9     4     -0.15121      10.24100      19.95500     34.42800
  266     9     4     -0.13939       9.04500      20.42100     33.85200
  267     9     4     -0.13939       9.07400      21.50800     32.96200
  268     9     4     -0.15121      10.29900      22.12600     32.65200
  269     9     3     -0.14216      12.74000      20.01800     34.76100
  270     9     3     -0.14531      13.63300      19.21100     33.80400
  271     9     4     -0.13852      17.39200      21.15100     32.79900
  272     9     4     -0.13852      17.36300      20.06200     33.68900
  273     9     1      0.13527      18.33000      21.62900     32.56000
  274     9     1      0.13527      18.27800      19.70300     34.13600
  275     9     1      0.13721      16.12900      18.61400     34.69000
  276     9     1      0.13721      16.23300      22.45900     31.54700
  277     9     2      0.10246      13.98300      22.19300     31.05300
  278     9     2      0.10246      13.13300      20.74100     31.43100
  279     9     2      0.10215      13.35200      22.62900     33.74900
  280     9     2      0.10215      12.56000      23.31500     32.37800
  281     9     1      0.13806      10.20400      19.11300     35.10400
  282     9     1      0.13419       8.10700      19.94200     34.09100
  283     9     1      0.13419       8.15800      21.86700     32.51600
  284     9     1      0.13806      10.30700      22.95700     31.96100
  285     9     2      0.10436      13.30400      20.83200     35.21900
  286     9     2      0.10436      12.45400      19.38000     35.59800
  287     9     2      0.10725      13.08400      18.94200     32.90100
  288     9     2      0.10726      13.87600      18.25500     34.27100
  289    10     4     -0.05268       8.05300      11.12000      9.58800
  290    10     4     -0.15229       9.13500      11.99500      9.35400
  291    10     4     -0.04416       8.29100       9.72500      9.68400
  292    10     4     -0.15229       9.60800       9.23500      9.54400
  293    10     3     -0.13408       7.16400       8.73000      9.91200
  294    10     3     -0.13874       6.26600       8.49200      8.68500
  295    10     4     -0.04720       4.86900       9.08000      8.80300
  296    10     4     -0.05477       4.63100      10.47400      8.70600
  297    10     4     -0.15121       3.31400      10.96500      8.84500
  298    10     4     -0.13939       2.24000      10.08500      9.07300
  299    10     4     -0.13939       2.47600       8.70300      9.17000
  300    10     4     -0.15121       3.78500       8.20500      9.03700
  301    10     3     -0.14216       5.75800      11.46800      8.47900
  302    10     3     -0.14531       6.65400      11.70700      9.70600
  303    10     4     -0.13852      10.68200      10.11500      9.31700
  304    10     4     -0.13852      10.44500      11.49800      9.22200
  305    10     1      0.13527      11.68500       9.72900      9.21400
  306    10     1      0.13527      11.26700      12.17600      9.04300
  307    10     1      0.13721       8.96900      13.05800      9.27000
  308    10     1      0.13721       9.80300       8.17500      9.60800
  309    10     2      0.10246       7.60100       7.77900     10.21700
  310    10     2      0.10246       6.56700       9.04500     10.76800
  311    10     2      0.10215       6.74500       8.86900      7.78100
  312    10     2      0.10215       6.17500       7.41800      8.52000
  313    10     1      0.13806       3.11800      12.02600      8.78100
  314    10     1      0.13419       1.23700      10.47200      9.17700
  315    10     1      0.13419       1.65400       8.02400      9.34700
  316    10     1      0.13806       3.95200       7.14100      9.12000
  317    10     2      0.10436       6.35500      11.15300      7.62200
  318    10     2      0.10436       5.32100      12.41900      8.17300
  319    10     2      0.10725       6.17600      11.32900     10.61000
  320    10     2      0.10726       6.74500      12.78100      9.87200
  321    11     4     -0.05268      19.19000      19.80800     15.37000
  322    11     4     -0.15229      18.97400      19.09800     14.16900
  323    11     4     -0.04416      18.76900      19.24100     16.60000
  324    11     4     -0.15229      18.14300      17.97600     16.60400
  325    11     3     -0.13408      18.95300      19.96700     17.92400
  326    11     3     -0.13874      17.99200      21.14900     18.14100
  327    11     4     -0.04720      18.65100      22.51800     18.06800
  328    11     4     -0.05477      19.07000      23.08400     16.83800
  329    11     4     -0.15121      19.69700      24.34900     16.83400
  330    11     4     -0.13939      19.90200      25.05300     18.03600
  331    11     4     -0.13939      19.48700      24.49100     19.25500
  332    11     4     -0.15121      18.86700      23.22800     19.26900
  333    11     3     -0.14216      18.88800      22.35800     15.51500
  334    11     3     -0.14531      19.84900      21.17700     15.29800
  335    11     4     -0.13852      17.93700      17.27300     15.40200
  336    11     4     -0.13852      18.35400      17.83500     14.18200
  337    11     1      0.13527      17.45900      16.30500     15.41700
  338    11     1      0.13527      18.19500      17.30000     13.25800
  339    11     1      0.13721      19.28200      19.52000     13.22400
  340    11     1      0.13721      17.81100      17.53600     17.53200
  341    11     2      0.10246      18.81300      19.24800     18.73200
  342    11     2      0.10246      19.98800      20.29100     18.02200
  343    11     2      0.10215      17.16400      21.10600     17.43300
  344    11     2      0.10215      17.52200      21.04500     19.11900
  345    11     1      0.13806      20.02900      24.79100     15.90500
  346    11     1      0.13419      20.38200      26.02100     18.02000
  347    11     1      0.13419      19.64600      25.02700     20.18000
  348    11     1      0.13806      18.55900      22.80700     20.21500
  349    11     2      0.10436      17.85100      22.03300     15.41800
  350    11     2      0.10436      19.02700      23.07700     14.70700
  351    11     2      0.10725      20.67700      21.22000     16.00700
  352    11     2      0.10726      20.32000      21.28100     14.32000
  353    12     4     -0.05268       9.73200      43.35400     33.50800
  354    12     4     -0.15229       8.82900      42.27200     33.44000
  355    12     4     -0.04416       9.82300      44.25800     32.42000
  356    12     4     -0.15229       9.00600      44.06000     31.28400
  357    12     3     -0.13408      10.79300      45.42900     32.42400
  358    12     3     -0.13874      12.26700      45.03600     32.22000
  359    12     4     -0.04720      13.13400      45.18100     33.46000
  360    12     4     -0.05477      13.04500      44.27700     34.54900
  361    12     4     -0.15121      13.86000      44.47400     35.68400
  362    12     4     -0.13939      14.76300      45.55200     35.74100
  363    12     4     -0.13939      14.85100      46.44800     34.66300
  364    12     4     -0.15121      14.03900      46.26300     33.53000
  365    12     3     -0.14216      12.07400      43.10700     34.54400
  366    12     3     -0.14531      10.60100      43.50000     34.74900
  367    12     4     -0.13852       8.10400      42.98300     31.22700
  368    12     4     -0.13852       8.01500      42.08600     32.30700
  369    12     1      0.13527       7.48400      42.84200     30.35400
  370    12     1      0.13527       7.32600      41.25500     32.26500
  371    12     1      0.13721       8.75400      41.57100     34.25800
  372    12     1      0.13721       9.07000      44.73700     30.44500
  373    12     2      0.10246      10.50100      46.12100     31.63300
  374    12     2      0.10246      10.67200      45.99900     33.34500
  375    12     2      0.10215      12.34300      44.01700     31.83900
  376    12     2      0.10215      12.68900      45.65700     31.42900
  377    12     1      0.13806      13.79800      43.79700     36.52400
  378    12     1      0.13419      15.38300      45.69200     36.61500
  379    12     1      0.13419      15.54100      47.27900     34.70500
  380    12     1      0.13806      14.11400      46.96400     32.71100
  381    12     2      0.10436      12.19500      42.53700     33.62200
  382    12     2      0.10436      12.36600      42.41400     35.33400
  383    12     2      0.10725      10.52500      44.51900     35.13000
  384    12     2      0.10726      10.17800      42.87900     35.54000
  385    13     4     -0.05268      24.83100      15.61800     10.96500
  386    13     4     -0.15229      26.02800      16.33500     11.17700
  387    13     4     -0.04416      23.59300      16.30800     10.97500
  388    13     4     -0.15229      23.57700      17.70300     11.19500
  389    13     3     -0.13408      22.26800      15.58800     10.77700
  390    13     3     -0.13874      21.81100      14.75100     11.98400
  391    13     4     -0.04720      21.89200      13.24700     11.77600
  392    13     4     -0.05477      23.13100      12.55700     11.76700
  393    13     4     -0.15121      23.14600      11.16200     11.54700
  394    13     4     -0.13939      21.94800      10.45400     11.34300
  395    13     4     -0.13939      20.72100      11.13800     11.35100
  396    13     4     -0.15121      20.69500      12.52800     11.56400