LAMMPS data file of the system for full atom style

    4992 atoms
    4992 bonds
    9984 angles
   14976 dihedrals

    2 atom types
    2 bond types
    3 angle types
    2 dihedral types

    0.000000    50.000000 xlo xhi
    0.000000    50.000000 ylo yhi
    0.000000    50.000000 zlo zhi

 Masses 

    1       1.0080
    2      12.0110

 Pair Coeffs 

    1       0.0300       2.5000
    2       0.0660       3.5000

 Bond Coeffs 

    1     268.0000        1.5290
    2     340.0000        1.0900

 Angle Coeffs 

    1      33.0000      107.8000
    2      37.5000      110.7000
    3      58.3500      112.7000

 Dihedral Coeffs 

    1       0.0000        0.0000       0.3000        0.0000
    2       0.8500       -0.2000       0.2000        0.0000

 Atoms 

    1     1     2     -0.19462      10.86500      10.94900     40.32500
    2     1     2     -0.09220       9.95100      12.03600     40.95600
    3     1     2     -0.15933       9.71100      11.65200     42.45000
    4     1     2     -0.16616      10.62700      12.38300     43.45700
    5     1     2     -0.17642      12.12800      12.04000     43.39900
    6     1     2     -0.17968      12.45000      10.60200     43.84800
    7     1     2     -0.18508      13.94500      10.25200     43.76500
    8     1     2     -0.24115      14.81700      11.01400     44.77100
    9     1     2     -0.17082      11.57400      11.32600     39.01100
   10     1     2     -0.18430      12.64400      10.30800     38.58100
   11     1     2     -0.18797      13.92100      10.37100     39.43900
   12     1     2     -0.18467      15.03900       9.42900     38.96600
   13     1     2     -0.18922      14.70600       7.94000     39.16800
   14     1     2     -0.18406      15.86600       6.98700     38.82200
   15     1     2     -0.18888      17.14200       7.16200     39.66800
   16     1     2     -0.18087      16.91300       7.01200     41.18000
   17     1     2     -0.18713      18.22300       7.08500     41.98200
   18     1     2     -0.17539      18.03500       6.87000     43.49300
   19     1     2     -0.18282      17.26000       8.00400     44.18500
   20     1     2     -0.24282      17.17500       7.81400     45.70300
   21     1     2     -0.10224       8.66900      12.28200     40.08500
   22     1     2     -0.18211       7.38400      12.68200     40.85800
   23     1     2     -0.20705       6.29400      13.23800     39.93000
   24     1     2     -0.18149       6.73800      14.54500     39.24800
   25     1     2     -0.19004       8.26900      14.65900     39.13400
   26     1     2     -0.19486       8.93100      13.28900     38.92400
   27     1     1      0.09842       7.61400      13.44100     41.60800
   28     1     1      0.09842       6.98700      11.81800     41.39400
   29     1     1      0.09370       5.36600      13.40200     40.48100
   30     1     1      0.09370       6.06400      12.48900     39.17100
   31     1     1      0.09727       6.35900      15.40600     39.80100
   32     1     1      0.09727       6.28100      14.60300     38.25800
   33     1     1      0.08662       8.53100      15.34100     38.32300
   34     1     1      0.08662       8.67100      15.10700     40.04400
   35     1     1      0.09391       8.55600      12.86200     37.99200
   36     1     1      0.09391       9.99500      13.44900     38.76100
   37     1     1      0.10727       8.42900      11.32900     39.61200
   38     1     1      0.11311      10.50100      12.97900     40.97700
   39     1     1      0.08266       9.77600      10.57200     42.58600
   40     1     1      0.08266       8.70300      11.88400     42.78100
   41     1     1      0.08261      10.26700      12.18400     44.46800
   42     1     1      0.08261      10.50700      13.45900     43.32000
   43     1     1      0.09016      12.65200      12.73800     44.05200
   44     1     1      0.09016      12.52300      12.23000     42.40000
   45     1     1      0.09256      11.90000       9.89400     43.22900
   46     1     1      0.09256      12.09200      10.44300     44.86600
   47     1     1      0.08733      14.06100       9.18100     43.94500
   48     1     1      0.08733      14.31600      10.42500     42.75300
   49     1     1      0.08064      14.47700      10.85400     45.79400
   50     1     1      0.08064      14.81200      12.08800     44.57900
   51     1     1      0.08064      15.85500      10.68300     44.71400
   52     1     1      0.08895      10.29700      10.03000     40.17900
   53     1     1      0.08895      11.63100      10.68300     41.04700
   54     1     1      0.09419      10.83100      11.39300     38.21600
   55     1     1      0.09419      12.02800      12.31500     39.09500
   56     1     1      0.09350      12.91200      10.50200     37.54200
   57     1     1      0.09350      12.21700       9.30500     38.59900
   58     1     1      0.08829      14.30300      11.39300     39.42900
   59     1     1      0.08829      13.69400      10.15000     40.48100
   60     1     1      0.09062      15.93700       9.67800     39.53300
   61     1     1      0.09062      15.28000       9.62500     37.92100
   62     1     1      0.09014      14.37500       7.76800     40.19200
   63     1     1      0.09014      13.85300       7.67600     38.54000
   64     1     1      0.09302      16.12000       7.10100     37.76700
   65     1     1      0.09302      15.51400       5.95900     38.92700
   66     1     1      0.09097      17.60000       8.13000     39.45800
   67     1     1      0.09097      17.87200       6.42100     39.34200
   68     1     1      0.09985      16.23800       7.79700     41.52000
   69     1     1      0.09985      16.41200       6.06400     41.38200
   70     1     1      0.08568      18.71400       8.04300     41.80500
   71     1     1      0.08568      18.90800       6.32300     41.60800
   72     1     1      0.08826      17.53600       5.91500     43.67100
   73     1     1      0.08826      19.02000       6.78300     43.95300
   74     1     1      0.09050      17.73700       8.96200     43.96800
   75     1     1      0.09050      16.24900       8.06700     43.78200
   76     1     1      0.08357      16.61400       8.62600     46.16600
   77     1     1      0.08357      18.16500       7.79500     46.15900
   78     1     1      0.08358      16.67100       6.88100     45.95800
   79     2     2     -0.19462      28.36200      35.64400     11.21600
   80     2     2     -0.09220      27.16600      34.93500     11.91100
   81     2     2     -0.15933      26.25200      36.03700     12.53500
   82     2     2     -0.16616      25.02800      36.42000     11.67400
   83     2     2     -0.17642      25.32000      37.13100     10.33900
   84     2     2     -0.17968      25.89200      38.55100     10.50800
   85     2     2     -0.18508      26.20800      39.25000      9.17500
   86     2     2     -0.24115      24.96400      39.59500      8.34700
   87     2     2     -0.17082      29.15100      34.81200     10.18800
   88     2     2     -0.18430      30.14900      35.64500      9.36700
   89     2     2     -0.18797      29.47200      36.54200      8.31400
   90     2     2     -0.18467      30.45600      37.31000      7.41900
   91     2     2     -0.18922      31.24100      38.39900      8.17100
   92     2     2     -0.18406      32.13500      39.26600      7.26500
   93     2     2     -0.18888      31.39500      40.07300      6.18100
   94     2     2     -0.18087      30.31900      41.02000      6.73500
   95     2     2     -0.18713      29.67900      41.88700      5.63800
   96     2     2     -0.17539      28.64500      42.89300      6.17000
   97     2     2     -0.18282      27.37500      42.23200      6.73300
   98     2     2     -0.24282      26.32200      43.25900      7.16400
   99     2     2     -0.10224      27.65800      33.80500     12.88300
  100     2     2     -0.18211      26.78200      33.55600     14.14000
  101     2     2     -0.20705      27.12500      32.23100     14.83700
  102     2     2     -0.18149      26.83000      31.02000     13.93400
  103     2     2     -0.19004      26.87400      31.37600     12.43700
  104     2     2     -0.19486      27.92000      32.46200     12.13800
  105     2     1      0.09842      25.72600      33.53600     13.86800
  106     2     1      0.09842      26.91000      34.37400     14.85200
  107     2     1      0.09370      26.57800      32.13700     15.77600
  108     2     1      0.09370      28.18300      32.23900     15.10500
  109     2     1      0.09727      25.84900      30.60400     14.17000
  110     2     1      0.09727      27.54800      30.22800     14.15400
  111     2     1      0.08662      27.07300      30.47900     11.84700
  112     2     1      0.08662      25.89500      31.73400     12.11700
  113     2     1      0.09391      28.90300      32.08300     12.42200
  114     2     1      0.09391      27.96500      32.60000     11.06000
  115     2     1      0.10727      28.62500      34.13000     13.27200
  116     2     1      0.11311      26.56200      34.44700     11.14400
  117     2     1      0.08266      26.83500      36.92200     12.79000
  118     2     1      0.08266      25.83100      35.73400     13.48800
  119     2     1      0.08261      24.36700      37.05500     12.26500
  120     2     1      0.08261      24.44800      35.51800     11.47200
  121     2     1      0.09016      24.38200      37.19400      9.78600
  122     2     1      0.09016      25.97800      36.52000      9.71800
  123     2     1      0.09256      26.81000      38.50700     11.09400
  124     2     1      0.09256      25.20100      39.16300     11.08800
  125     2     1      0.08733      26.75100      40.17300      9.38800
  126     2     1      0.08733      26.88600      38.63700      8.58000
  127     2     1      0.08064      24.26900      40.21700      8.91200
  128     2     1      0.08064      24.43000      38.70000      8.02600
  129     2     1      0.08064      25.23800      40.14500      7.44500
  130     2     1      0.08895      29.04800      36.03300     11.97000
  131     2     1      0.08895      27.98800      36.52800     10.70700
  132     2     1      0.09419      29.70800      34.03700     10.71400
  133     2     1      0.09419      28.46600      34.29800      9.51200
  134     2     1      0.09350      30.83400      34.96600      8.85700
  135     2     1      0.09350      30.76500      36.24100     10.04200
  136     2     1      0.08829      28.83700      35.92200      7.67800
  137     2     1      0.08829      28.80300      37.25600      8.79200
  138     2     1      0.09062      29.87800      37.77000      6.61700
  139     2     1      0.09062      31.14400      36.61600      6.93300
  140     2     1      0.09014      30.55300      39.03300      8.73100
  141     2     1      0.09014      31.87600      37.92800      8.92300
  142     2     1      0.09302      32.88200      38.63100      6.78700
  143     2     1      0.09302      32.70100      39.95700      7.89300
  144     2     1      0.09097      30.95100      39.39700      5.44900
  145     2     1      0.09097      32.13200      40.65600      5.62600
  146     2     1      0.09985      29.54400      40.43300      7.22800
  147     2     1      0.09985      30.75600      41.66300      7.50100
  148     2     1      0.08568      29.21600      41.24900      4.88300
  149     2     1      0.08568      30.46400      42.44000      5.12200
  150     2     1      0.08826      29.10500      43.52600      6.93100
  151     2     1      0.08826      28.36400      43.56100      5.35500
  152     2     1      0.09050      26.94400      41.56600      5.98400
  153     2     1      0.09050      27.62700      41.60800      7.59100
  154     2     1      0.08357      25.43800      42.76400      7.56600
  155     2     1      0.08357      26.00200      43.87700      6.32400
  156     2     1      0.08358      26.70900      43.92200      7.93900
  157     3     2     -0.19462      16.57200      26.91300     16.34600
  158     3     2     -0.09220      16.57200      25.71800     17.33900
  159     3     2     -0.15933      15.21400      24.96400     17.18200
  160     3     2     -0.16616      15.27500      23.71300     16.27600
  161     3     2     -0.17642      15.54400      23.96000     14.77900
  162     3     2     -0.17968      14.38800      24.67300     14.05300
  163     3     2     -0.18508      14.66800      24.94200     12.56500
  164     3     2     -0.24115      14.73600      23.67100     11.70800
  165     3     2     -0.17082      17.94200      27.53500     16.01900
  166     3     2     -0.18430      17.89500      28.53600     14.85200
  167     3     2     -0.18797      17.73000      27.86100     13.47900
  168     3     2     -0.18467      17.77700      28.83600     12.29200
  169     3     2     -0.18922      16.56000      29.77600     12.22800
  170     3     2     -0.18406      16.52400      30.67000     10.97400
  171     3     2     -0.18888      16.44000      29.92100      9.63000
  172     3     2     -0.18087      15.22600      28.98600      9.51200
  173     3     2     -0.18713      15.11700      28.34100      8.12000
  174     3     2     -0.17539      13.87400      27.45100      7.94900
  175     3     2     -0.18282      13.90600      26.17600      8.80800
  176     3     2     -0.24282      12.70500      25.26100      8.54300
  177     3     2     -0.10224      16.94800      26.18100     18.79100
  178     3     2     -0.18211      16.28700      25.39200     19.95200
  179     3     2     -0.20705      16.96300      25.66600     21.30400
  180     3     2     -0.18149      18.42700      25.18800     21.31600
  181     3     2     -0.19004      19.04400      25.14300     19.90700
  182     3     2     -0.19486      18.49000      26.25700     19.00400
  183     3     1      0.09842      16.33600      24.31900     19.75700
  184     3     1      0.09842      15.23000      25.65200     20.02600
  185     3     1      0.09370      16.41000      25.19100     22.11500
  186     3     1      0.09370      16.92700      26.73900     21.50300
  187     3     1      0.09727      18.49500      24.19500     21.76400
  188     3     1      0.09727      19.01100      25.84600     21.96200
  189     3     1      0.08662      20.13100      25.20900     19.97400
  190     3     1      0.08662      18.83100      24.17800     19.44400
  191     3     1      0.09391      18.74100      27.22000     19.44900
  192     3     1      0.09391      19.03000      26.22600     18.06000
  193     3     1      0.10727      16.57700      27.20200     18.89600
  194     3     1      0.11311      17.34300      25.01000     17.02800
  195     3     1      0.08266      14.43200      25.64400     16.84600
  196     3     1      0.08266      14.83300      24.59500     18.12900
  197     3     1      0.08261      14.33600      23.16500     16.37100
  198     3     1      0.08261      16.03900      23.03900     16.66400
  199     3     1      0.09016      15.70900      22.99000     14.30900
  200     3     1      0.09016      16.47900      24.50600     14.64500
  201     3     1      0.09256      14.18500      25.62800     14.53900
  202     3     1      0.09256      13.47100      24.09000     14.15400
  203     3     1      0.08733      13.87600      25.58400     12.17300
  204     3     1      0.08733      15.59300      25.51000     12.45300
  205     3     1      0.08064      13.82100      23.08600     11.79100
  206     3     1      0.08064      15.57200      23.03300     11.99700
  207     3     1      0.08064      14.87300      23.92100     10.65500
  208     3     1      0.08895      15.89800      27.69100     16.70600
  209     3     1      0.08895      16.12900      26.58200     15.41100
  210     3     1      0.09419      18.31000      28.06000     16.90100
  211     3     1      0.09419      18.66900      26.75400     15.79600
  212     3     1      0.09350      18.82200      29.11200     14.84900
  213     3     1      0.09350      17.09500      29.25800     15.02600
  214     3     1      0.08829      18.52300      27.12200     13.35100
  215     3     1      0.08829      16.79600      27.30200     13.43600
  216     3     1      0.09062      17.82000      28.23900     11.38000
  217     3     1      0.09062      18.70100      29.41500     12.31600
  218     3     1      0.09014      15.63900      29.19800     12.30000
  219     3     1      0.09014      16.56200      30.42400     13.10600
  220     3     1      0.09302      17.40500      31.31300     10.96900
  221     3     1      0.09302      15.67000      31.34600     11.05300
  222     3     1      0.09097      17.35900      29.35900      9.45700
  223     3     1      0.09097      16.40000      30.66100      8.82900
  224     3     1      0.09985      15.30300      28.20300     10.26600
  225     3     1      0.09985      14.31400      29.54100      9.73100
  226     3     1      0.08568      16.01600      27.76100      7.90700
  227     3     1      0.08568      15.08300      29.12900      7.36700
  228     3     1      0.08826      12.97400      28.02800      8.17000
  229     3     1      0.08826      13.79700      27.16700      6.89800
  230     3     1      0.09050      14.82800      25.62500      8.61600
  231     3     1      0.09050      13.92000      26.43800      9.86600
  232     3     1      0.08357      12.74900      24.37100      9.17100
  233     3     1      0.08357      12.67800      24.93100      7.50400
  234     3     1      0.08358      11.76500      25.76900      8.75900
  235     4     2     -0.19462       8.56900      23.35000     24.46500
  236     4     2     -0.09220       8.21600      24.86300     24.45900
  237     4     2     -0.15933       9.53900      25.66300     24.24100
  238     4     2     -0.16616       9.78800      26.10800     22.78200
  239     4     2     -0.17642      10.05700      24.98900     21.75700
  240     4     2     -0.17968      11.39800      24.26300     21.97300
  241     4     2     -0.18508      11.65300      23.12900     20.96500
  242     4     2     -0.24115      11.87700      23.61700     19.52800
  243     4     2     -0.17082       7.40100      22.37100     24.24100
  244     4     2     -0.18430       7.85700      20.92000     24.01100
  245     4     2     -0.18797       8.48400      20.69300     22.62400
  246     4     2     -0.18467       8.85800      19.23000     22.33700
  247     4     2     -0.18922      10.02800      18.72200     23.19900
  248     4     2     -0.18406      10.50300      17.30200     22.83600
  249     4     2     -0.18888      11.04300      17.13100     21.40200
  250     4     2     -0.18087      12.21600      18.06400     21.06300
  251     4     2     -0.18713      12.79700      17.79000     19.66500
  252     4     2     -0.17539      14.01600      18.66300     19.32200
  253     4     2     -0.18282      13.67900      20.15500     19.15900
  254     4     2     -0.24282      14.89100      20.98400     18.72000
  255     4     2     -0.10224       7.36300      25.25600     25.71600
  256     4     2     -0.18211       7.57500      26.69300     26.26300
  257     4     2     -0.20705       6.47400      27.11100     27.25000
  258     4     2     -0.18149       5.09300      27.17200     26.56900
  259     4     2     -0.19004       5.00400      26.25700     25.33500
  260     4     2     -0.19486       5.84400      24.98200     25.50600
  261     4     1      0.09842       7.58900      27.41300     25.44300
  262     4     1      0.09842       8.54200      26.76400     26.76300
  263     4     1      0.09370       6.70800      28.07500     27.70400
  264     4     1      0.09370       6.44600      26.39100     28.06900
  265     4     1      0.09727       4.86800      28.19600     26.26800
  266     4     1      0.09727       4.32600      26.90100     27.29700
  267     4     1      0.08662       3.96000      26.00500     25.13400
  268     4     1      0.08662       5.35700      26.79400     24.45400
  269     4     1      0.09391       5.46000      24.42700     26.36400
  270     4     1      0.09391       5.66500      24.34100     24.64500
  271     4     1      0.10727       7.68200      24.59700     26.52600
  272     4     1      0.11311       7.59700      25.06900     23.58400
  273     4     1      0.08266      10.39400      25.10600     24.62400
  274     4     1      0.08266       9.56500      26.58400     24.81500
  275     4     1      0.08261      10.63200      26.80000     22.76600
  276     4     1      0.08261       8.93200      26.69500     22.44600
  277     4     1      0.09016      10.05800      25.44300     20.76600
  278     4     1      0.09016       9.23000      24.27800     21.74500
  279     4     1      0.09256      11.42600      23.83900     22.97700
  280     4     1      0.09256      12.21800      24.98100     21.93300
  281     4     1      0.08733      12.53600      22.57300     21.28600
  282     4     1      0.08733      10.82800      22.41600     20.98600
  283     4     1      0.08064      12.70300      24.32600     19.47300
  284     4     1      0.08064      10.98900      24.10300     19.12200
  285     4     1      0.08064      12.11600      22.78200     18.86800
  286     4     1      0.08895       9.08200      23.09500     25.39300
  287     4     1      0.08895       9.30600      23.16600     23.68900
  288     4     1      0.09419       6.75400      22.38800     25.11700
  289     4     1      0.09419       6.79100      22.69700     23.39700
  290     4     1      0.09350       6.99300      20.26200     24.11500
  291     4     1      0.09350       8.55200      20.62900     24.80000
  292     4     1      0.08829       7.78000      21.02500     21.85900
  293     4     1      0.08829       9.37100      21.31200     22.49700
  294     4     1      0.09062       9.13000      19.16200     21.28300
  295     4     1      0.09062       7.98700      18.58600     22.46500
  296     4     1      0.09014      10.86300      19.41900     23.14200
  297     4     1      0.09014       9.72600      18.71900     24.24700
  298     4     1      0.09302       9.68300      16.60000     22.99300
  299     4     1      0.09302      11.28000      17.00400     23.54100
  300     4     1      0.09097      10.23700      17.27100     20.68000
  301     4     1      0.09097      11.36300      16.09500     21.27900
  302     4     1      0.09985      11.87700      19.09800     21.11500
  303     4     1      0.09985      12.99900      17.95500     21.81300
  304     4     1      0.08568      12.02300      17.92500     18.90800
  305     4     1      0.08568      13.09500      16.74300     19.60700
  306     4     1      0.08826      14.78700      18.53500     20.08400
  307     4     1      0.08826      14.45100      18.29500     18.39200
  308     4     1      0.09050      12.87700      20.27400     18.42900
  309     4     1      0.09050      13.30100      20.55800     20.09900
  310     4     1      0.08357      14.62700      22.03700     18.62100
  311     4     1      0.08357      15.27500      20.64800     17.75700
  312     4     1      0.08358      15.70200      20.91600     19.44700
  313     5     2     -0.19462       7.64100      18.38900     29.98300
  314     5     2     -0.09220       9.19300      18.43900     29.99600
  315     5     2     -0.15933       9.72200      17.08000     29.43800
  316     5     2     -0.16616      10.11600      17.10900     27.94400
  317     5     2     -0.17642       8.97100      17.31100     26.93300
  318     5     2     -0.17968       7.99700      16.12000     26.85700
  319     5     2     -0.18508       6.83900      16.33400     25.86700
  320     5     2     -0.24115       7.28000      16.37300     24.39800
  321     5     2     -0.17082       6.90800      19.74000     30.08300
  322     5     2     -0.18430       5.39700      19.63600     29.81500
  323     5     2     -0.18797       5.05800      19.41500     28.32900
  324     5     2     -0.18467       3.55200      19.40500     28.02600
  325     5     2     -0.18922       2.82200      18.18100     28.60800
  326     5     2     -0.18406       1.33900      18.08500     28.20400
  327     5     2     -0.18888       1.07200      17.94800     26.69200
  328     5     2     -0.18087       1.76100      16.73600     26.04500
  329     5     2     -0.18713       1.38500      16.57000     24.56400
  330     5     2     -0.17539       2.00500      15.32600     23.90600
  331     5     2     -0.18282       3.53400      15.40200     23.76300
  332     5     2     -0.24282       4.11400      14.19700     23.01500
  333     5     2     -0.10224       9.74000      18.87500     31.40100
  334     5     2     -0.18211      11.10600      18.26900     31.82100
  335     5     2     -0.20705      11.72600      19.00200     33.02000
  336     5     2     -0.18149      12.05700      20.46800     32.68300
  337     5     2     -0.19004      11.18200      21.02300     31.54600
  338     5     2     -0.19486       9.76700      20.42400     31.56800
  339     5     1      0.09842      11.81200      18.31600     30.99000
  340     5     1      0.09842      10.98500      17.21500     32.07400
  341     5     1      0.09370      12.62400      18.48700     33.36400
  342     5     1      0.09370      11.02200      18.96900     33.85400
  343     5     1      0.09727      13.10700      20.56100     32.40000
  344     5     1      0.09727      11.93700      21.07500     33.58200
  345     5     1      0.08662      11.13900      22.11200     31.60700
  346     5     1      0.08662      11.64400      20.79600     30.58400
  347     5     1      0.09391       9.29400      20.68900     32.51500
  348     5     1      0.09391       9.17700      20.92300     30.80100
  349     5     1      0.10727       9.02800      18.50200     32.14000
  350     5     1      0.11311       9.52000      19.20000     29.28400
  351     5     1      0.08266       9.00700      16.28000     29.63200
  352     5     1      0.08266      10.61800      16.74300     29.94900
  353     5     1      0.08261      10.63100      16.17800     27.69900
  354     5     1      0.08261      10.85900      17.89300     27.79400
  355     5     1      0.09016       9.41900      17.46100     25.95100
  356     5     1      0.09016       8.43300      18.23600     27.14700
  357     5     1      0.09256       7.57100      15.93300     27.84300
  358     5     1      0.09256       8.54100      15.21200     26.59400
  359     5     1      0.08733       6.12000      15.52200     25.99400
  360     5     1      0.08733       6.29900      17.25000     26.11300
  361     5     1      0.08064       7.81500      15.46500     24.11900
  362     5     1      0.08064       7.93000      17.22400     24.19300
  363     5     1      0.08064       6.41700      16.46200     23.73700
  364     5     1      0.08895       7.28700      17.72600     30.77400
  365     5     1      0.08895       7.32000      17.90800     29.06400
  366     5     1      0.09419       7.04700      20.14300     31.08600
  367     5     1      0.09419       7.35000      20.46100     29.39400
  368     5     1      0.09350       4.92000      20.55900     30.14800
  369     5     1      0.09350       4.97400      18.84000     30.42900
  370     5     1      0.08829       5.52400      20.20600     27.73900
  371     5     1      0.08829       5.49300      18.48400     27.97100
  372     5     1      0.09062       3.43700      19.41200     26.94100
  373     5     1      0.09062       3.08900      20.32600     28.38300
  374     5     1      0.09014       3.34400      17.26700     28.32500
  375     5     1      0.09014       2.87400      18.21800     29.69700
  376     5     1      0.09302       0.80900      18.96200     28.58000
  377     5     1      0.09302       0.89200      17.23300     28.71800
  378     5     1      0.09097       1.36900      18.86200     26.17500
  379     5     1      0.09097      -0.00600      17.86900     26.54200
  380     5     1      0.09985       2.84100      16.84900     26.13200
  381     5     1      0.09985       1.49900      15.83000     26.59400
  382     5     1      0.08568       1.67000      17.46200     24.00500
  383     5     1      0.08568       0.29900      16.49800     24.48100
  384     5     1      0.08826       1.72700      14.43300     24.46800
  385     5     1      0.08826       1.56300      15.20500     22.91500
  386     5     1      0.09050       3.81000      16.31900     23.23800
  387     5     1      0.09050       3.99900      15.46100     24.74700
  388     5     1      0.08357       5.19900      14.27200     22.93600
  389     5     1      0.08357       3.71400      14.12600     22.00300
  390     5     1      0.08358       3.88700      13.26300     23.53200
  391     6     2     -0.19462       5.06400       1.86800     35.16900
  392     6     2     -0.09220       4.80200       1.95900     36.69800
  393     6     2     -0.15933       5.80900       1.00500     37.41400
  394     6     2     -0.16616       7.06800       1.70400     37.97600
  395     6     2     -0.17642       8.04700       2.29400     36.94400
  396     6     2     -0.17968       8.77400       1.22800     36.10300
  397     6     2     -0.18508       9.73200       1.81900     35.05400
  398     6     2     -0.24115      10.95700       2.51700     35.65900
  399     6     2     -0.17082       4.49800       3.01100     34.30500
  400     6     2     -0.18430       5.00400       2.98700     32.85300
  401     6     2     -0.18797       6.47000       3.43400     32.71300
  402     6     2     -0.18467       6.96600       3.50900     31.26100
  403     6     2     -0.18922       7.08600       2.13000     30.58700
  404     6     2     -0.18406       7.70500       2.17400     29.17700
  405     6     2     -0.18888       9.14800       2.71000     29.10400