LAMMPS data file of the system for full atom style

    4968 atoms
    4968 bonds
    9522 angles
   13869 dihedrals
     414 impropers

    4 atom types
    5 bond types
    8 angle types
    6 dihedral types
    1 improper types

    0.000000    50.000000 xlo xhi
    0.000000    50.000000 ylo yhi
    0.000000    50.000000 zlo zhi

 Masses 

    1       1.0080
    2       1.0080
    3      12.0110
    4      12.0110

 Pair Coeffs 

    1       0.0300       2.4200
    2       0.0300       2.5000
    3       0.0660       3.5000
    4       0.0700       3.5500

 Bond Coeffs 

    1     268.0000        1.5290
    2     317.0000        1.5100
    3     340.0000        1.0900
    4     367.0000        1.0800
    5     469.0000        1.4000

 Angle Coeffs 

    1      33.0000      107.8000
    2      35.0000      109.5000
    3      35.0000      120.0000
    4      37.5000      110.7000
    5      58.3500      112.7000
    6      63.0000      114.0000
    7      63.0000      120.0000
    8      70.0000      120.0000

 Dihedral Coeffs 

    1      -0.2500        0.0000       0.0000        0.0000
    2       0.0000        0.0000       0.0000        0.0000
    3       0.0000        0.0000       0.3000        0.0000
    4       0.0000        0.0000       0.4620        0.0000
    5       0.0000        7.2500       0.0000        0.0000
    6       0.8500       -0.2000       0.2000        0.0000

 Improper Coeffs 

    1       2.5000     -1     2

 Atoms 

    1     1     3     -0.17727      19.12500      13.27700     14.78000
    2     1     3     -0.18282      19.75800      14.64400     14.45900
    3     1     3     -0.17471      18.32100      12.63500     13.63400
    4     1     3     -0.19146      19.15400      12.35200     12.37400
    5     1     3     -0.18352      18.35500      11.59100     11.30400
    6     1     3     -0.17450      19.12100      11.39200      9.98300
    7     1     3     -0.17930      20.41500      10.56000     10.09300
    8     1     3     -0.18242      20.23400       9.13700     10.65700
    9     1     3     -0.17112      19.27100       8.23500      9.86000
   10     1     3     -0.17214      19.65300       8.00900      8.38400
   11     1     3     -0.17167      21.04500       7.39200      8.15300
   12     1     3     -0.17787      21.20900       5.98700      8.75700
   13     1     3     -0.18784      22.57100       5.36200      8.41700
   14     1     3     -0.18911      22.73400       3.92300      8.93300
   15     1     3     -0.24626      22.77800       3.81900     10.46400
   16     1     3     -0.18308      18.73100      15.74300     14.13300
   17     1     3     -0.17031      19.36400      17.11000     13.81100
   18     1     3     -0.18149      20.17700      17.74900     14.95200
   19     1     3     -0.17987      19.35400      18.02500     16.22100
   20     1     3     -0.14912      20.16100      18.76400     17.29700
   21     1     4     -0.07560      19.36600      19.03500     18.55900
   22     1     4     -0.13527      18.65500      20.24400     18.70400
   23     1     4     -0.13411      17.91000      20.49000     19.87300
   24     1     4     -0.14072      17.87000      19.52700     20.90000
   25     1     4     -0.13411      18.57400      18.31600     20.75500
   26     1     4     -0.13527      19.32000      18.07000     19.58600
   27     1     1      0.13325      17.29700      19.71600     21.79600
   28     1     1      0.13433      18.54100      17.57500     21.54100
   29     1     1      0.14191      19.85500      17.13700     19.47900
   30     1     1      0.14191      18.67800      20.98500     17.91800
   31     1     1      0.13433      17.36700      21.41800     19.98200
   32     1     2      0.10013      21.04800      18.18600     17.56100
   33     1     2      0.10013      20.53000      19.71300     16.90400
   34     1     2      0.09946      18.47000      18.61200     15.96800
   35     1     2      0.09946      18.98700      17.08700     16.64000
   36     1     2      0.08813      21.03700      17.12500     15.19600
   37     1     2      0.08813      20.59400      18.68900     14.58900
   38     1     2      0.08906      18.57300      17.80000     13.51100
   39     1     2      0.08906      20.00600      17.00500     12.93400
   40     1     2      0.09007      18.14400      15.43900     13.26600
   41     1     2      0.09007      18.01700      15.84200     14.95000
   42     1     2      0.08752      20.47400      14.54600     13.64300
   43     1     2      0.08752      20.34400      14.94700     15.32800
   44     1     2      0.08719      19.91400      12.58800     15.08700
   45     1     2      0.08719      18.47600      13.38200     15.65200
   46     1     2      0.09124      17.90300      11.69500     13.99900
   47     1     2      0.09124      17.46100      13.25600     13.38200
   48     1     2      0.09830      19.51300      13.29100     11.95100
   49     1     2      0.09830      20.03900      11.77800     12.65100
   50     1     2      0.09306      18.02900      10.62700     11.69600
   51     1     2      0.09306      17.44000      12.14400     11.08800
   52     1     2      0.08606      19.36600      12.36800      9.56400
   53     1     2      0.08606      18.45600      10.92800      9.25400
   54     1     2      0.08736      21.13700      11.09500     10.71000
   55     1     2      0.08736      20.88000      10.50100      9.10900
   56     1     2      0.08730      21.21000       8.65500     10.72100
   57     1     2      0.08730      19.88700       9.20000     11.68900
   58     1     2      0.08901      19.19100       7.27100     10.36500
   59     1     2      0.08901      18.26500       8.65500      9.90300
   60     1     2      0.08703      18.90000       7.37100      7.91800
   61     1     2      0.08703      19.59300       8.95800      7.84800
   62     1     2      0.08856      21.21900       7.33700      7.07600
   63     1     2      0.08856      21.81800       8.05600      8.54000
   64     1     2      0.09525      20.40900       5.33900      8.39500
   65     1     2      0.09525      21.09700       6.04500      9.83900
   66     1     2      0.08721      23.37600       5.98800      8.81000
   67     1     2      0.08721      22.69800       5.35600      7.33400
   68     1     2      0.09077      21.93100       3.29400      8.54300
   69     1     2      0.09077      23.65800       3.50900      8.52900
   70     1     2      0.08327      21.83500       4.12300     10.91800
   71     1     2      0.08327      23.56800       4.44500     10.88200
   72     1     2      0.08327      22.97100       2.79300     10.77700
   73     2     3     -0.17727      40.03500      34.76900     41.00800
   74     2     3     -0.18282      41.42200      35.00600     40.38000
   75     2     3     -0.17471      39.64800      35.73800     42.14000
   76     2     3     -0.19146      39.59200      37.21100     41.70500
   77     2     3     -0.18352      39.07300      38.13100     42.82100
   78     2     3     -0.17450      39.11200      39.62800     42.46000
   79     2     3     -0.17930      38.24100      40.03500     41.25500
   80     2     3     -0.18242      36.74100      39.70600     41.38800
   81     2     3     -0.17112      36.03500      40.34700     42.59900
   82     2     3     -0.17214      36.08800      41.88700     42.65000
   83     2     3     -0.17167      35.49000      42.60600     41.42600
   84     2     3     -0.17787      33.99200      42.33200     41.21600
   85     2     3     -0.18784      33.40900      43.14600     40.05000
   86     2     3     -0.18911      31.89400      42.96200     39.86900
   87     2     3     -0.24626      31.49500      41.54800     39.41900
   88     2     3     -0.18308      42.59000      34.83000     41.36700
   89     2     3     -0.17031      43.97600      35.06900     40.73800
   90     2     3     -0.18149      44.36100      34.10700     39.59900
   91     2     3     -0.17987      44.40900      32.63000     40.02300
   92     2     3     -0.14912      44.90500      31.71000     38.89800
   93     2     4     -0.07560      44.94800      30.24900     39.29800
   94     2     4     -0.13527      46.12600      29.69800     39.84600
   95     2     4     -0.13411      46.16100      28.34100     40.22400
   96     2     4     -0.14072      45.01900      27.53300     40.06100
   97     2     4     -0.13411      43.84100      28.08300     39.51900
   98     2     4     -0.13527      43.80500      29.43900     39.14100
   99     2     1      0.13325      45.04700      26.49300     40.35200
  100     2     1      0.13433      42.96300      27.46400     39.39700
  101     2     1      0.14191      42.89600      29.85600     38.73000
  102     2     1      0.14191      47.00300      30.31300     39.97800
  103     2     1      0.13433      47.06400      27.92200     40.64200
  104     2     2      0.10013      44.26400      31.81300     38.02100
  105     2     2      0.10013      45.90200      32.01600     38.57600
  106     2     2      0.09946      45.05700      32.51600     40.89300
  107     2     2      0.09946      43.41800      32.29900     40.33500
  108     2     2      0.08813      43.68000      34.23000     38.75700
  109     2     2      0.08813      45.34300      34.40000     39.22300
  110     2     2      0.08906      44.73100      35.00700     41.52400
  111     2     2      0.08906      44.02600      36.09500     40.36900
  112     2     2      0.09007      42.47400      35.53700     42.18900
  113     2     2      0.09007      42.54800      33.84100     41.82300
  114     2     2      0.08752      41.46400      35.99400     39.92200
  115     2     2      0.08752      41.53600      34.29800     39.55800
  116     2     2      0.08719      39.28000      34.82400     40.22200
  117     2     2      0.08719      39.98800      33.74600     41.38600
  118     2     2      0.09124      38.66700      35.44400     42.51700
  119     2     2      0.09124      40.32900      35.62400     42.98400
  120     2     2      0.09830      40.58500      37.54400     41.40000
  121     2     2      0.09830      38.95200      37.30100     40.82600
  122     2     2      0.09306      38.06000      37.84100     43.10400
  123     2     2      0.09306      39.68100      37.98000     43.71500
  124     2     2      0.08606      40.14400      39.91800     42.26100
  125     2     2      0.08606      38.81500      40.21100     43.33200
  126     2     2      0.08736      38.62800      39.56100     40.35200
  127     2     2      0.08736      38.36000      41.10500     41.08000
  128     2     2      0.08730      36.23000      40.00500     40.47200
  129     2     2      0.08730      36.61200      38.62400     41.43600
  130     2     2      0.08901      34.99400      40.02000     42.61500
  131     2     2      0.08901      36.46500      39.94900     43.51900
  132     2     2      0.08703      35.57200      42.22800     43.54900
  133     2     2      0.08703      37.12400      42.20700     42.77800
  134     2     2      0.08856      35.64000      43.68000     41.55500
  135     2     2      0.08856      36.04700      42.34000     40.52700
  136     2     2      0.09525      33.44700      42.56300     42.13200
  137     2     2      0.09525      33.84300      41.27000     41.02600
  138     2     2      0.08721      33.92500      42.89100     39.12300
  139     2     2      0.08721      33.60900      44.20500     40.22300
  140     2     2      0.09077      31.37300      43.21600     40.79400
  141     2     2      0.09077      31.54100      43.67600     39.12400
  142     2     2      0.08327      31.73000      40.80100     40.17700
  143     2     2      0.08327      32.00800      41.26600     38.49900
  144     2     2      0.08327      30.42300      41.49000     39.23100
  145     3     3     -0.17727      25.26100      22.34300     20.94400
  146     3     3     -0.18282      26.67800      22.71200     21.42200
  147     3     3     -0.17471      24.44100      23.50200     20.35000
  148     3     3     -0.19146      25.07800      24.14000     19.10600
  149     3     3     -0.18352      24.17000      25.20100     18.46200
  150     3     3     -0.17450      24.82300      25.94300     17.28200
  151     3     3     -0.17930      25.20900      25.05600     16.08100
  152     3     3     -0.18242      24.04700      24.26500     15.44900
  153     3     3     -0.17112      22.87900      25.12400     14.92400
  154     3     3     -0.17214      23.25900      26.16100     13.84800
  155     3     3     -0.17167      23.91500      25.58100     12.58100
  156     3     3     -0.17787      23.01200      24.60900     11.80300
  157     3     3     -0.18784      23.66000      24.13400     10.49300
  158     3     3     -0.18911      22.74800      23.23000      9.64900
  159     3     3     -0.24626      22.45600      21.87000     10.29900
  160     3     3     -0.18308      26.70000      23.74000     22.56700
  161     3     3     -0.17031      28.11800      24.11100     23.04400
  162     3     3     -0.18149      28.94400      22.95100     23.62900
  163     3     3     -0.17987      28.30800      22.29900     24.86800
  164     3     3     -0.14912      29.20700      21.22400     25.49400
  165     3     4     -0.07560      28.58900      20.56500     26.71100
  166     3     4     -0.13527      28.83700      21.08100     28.00000
  167     3     4     -0.13411      28.25500      20.47200     29.12900
  168     3     4     -0.14072      27.42100      19.34700     28.97300
  169     3     4     -0.13411      27.16800      18.83400     27.68600
  170     3     4     -0.13527      27.74900      19.44200     26.55700
  171     3     1      0.13325      26.97500      18.88200     29.83900
  172     3     1      0.13433      26.52500      17.97300     27.56600
  173     3     1      0.14191      27.54700      19.04600     25.57200
  174     3     1      0.14191      29.47200      21.94500     28.12700
  175     3     1      0.13433      28.44700      20.86900     30.11500
  176     3     2      0.10013      29.43500      20.45200     24.75800
  177     3     2      0.10013      30.16700      21.65700     25.77900
  178     3     2      0.09946      28.08600      23.06200     25.61500
  179     3     2      0.09946      27.35300      21.84600     24.60200
  180     3     2      0.08813      29.12600      22.19600     22.86300
  181     3     2      0.08813      29.92900      23.33500     23.89700
  182     3     2      0.08906      28.03900      24.90200     23.79200
  183     3     2      0.08906      28.66700      24.55300     22.21000
  184     3     2      0.09007      26.21400      24.65700     22.23400
  185     3     2      0.09007      26.10300      23.38000     23.40500
  186     3     2      0.08752      27.27700      23.07100     20.58500
  187     3     2      0.08752      27.16400      21.79400     21.75500
  188     3     2      0.08719      25.33700      21.54700     20.20100
  189     3     2      0.08719      24.70800      21.90800     21.77900
  190     3     2      0.09124      23.45400      23.11800     20.08300
  191     3     2      0.09124      24.25900      24.26400     21.10900
  192     3     2      0.09830      26.03000      24.60100     19.37400
  193     3     2      0.09830      25.30500      23.35900     18.37900
  194     3     2      0.09306      23.23100      24.74500     18.14400
  195     3     2      0.09306      23.89600      25.93700     19.21900
  196     3     2      0.08606      25.71500      26.46000     17.63700
  197     3     2      0.08606      24.15100      26.73300     16.94400
  198     3     2      0.08736      25.98900      24.35600     16.38400
  199     3     2      0.08736      25.67700      25.67900     15.31900
  200     3     2      0.08730      24.43700      23.65200     14.63600
  201     3     2      0.08730      23.66000      23.54900     16.17600
  202     3     2      0.08901      22.10300      24.46400     14.53400
  203     3     2      0.08901      22.40900      25.64200     15.76100
  204     3     2      0.08703      22.36400      26.71600     13.56200
  205     3     2      0.08703      23.92800      26.90400     14.28500
  206     3     2      0.08856      24.18700      26.41200     11.92700
  207     3     2      0.08856      24.85500      25.09100     12.83700
  208     3     2      0.09525      22.05900      25.09400     11.58500
  209     3     2      0.09525      22.78700      23.74700     12.42900
  210     3     2      0.08721      24.59600      23.61600     10.70800
  211     3     2      0.08721      23.93100      25.00600      9.89500
  212     3     2      0.09077      21.80900      23.74500      9.43100
  213     3     2      0.09077      23.22300      23.05900      8.68200
  214     3     2      0.08327      21.88600      21.97700     11.22200
  215     3     2      0.08327      23.37800      21.33600     10.53400
  216     3     2      0.08327      21.87100      21.23800      9.63000
  217     4     3     -0.17727      40.32500      34.01500     23.83300
  218     4     3     -0.18282      40.91300      32.75800     23.16300
  219     4     3     -0.17471      39.18900      34.70700     23.05800
  220     4     3     -0.19146      37.95700      33.81600     22.83400
  221     4     3     -0.18352      36.79500      34.57900     22.17800
  222     4     3     -0.17450      35.58600      33.69000     21.83200
  223     4     3     -0.17930      34.90500      33.01100     23.03700
  224     4     3     -0.18242      34.38500      33.97100     24.12500
  225     4     3     -0.17112      33.35100      35.00800     23.64300
  226     4     3     -0.17214      32.07100      34.41800     23.01800
  227     4     3     -0.17167      31.27300      33.46900     23.93100
  228     4     3     -0.17787      30.74100      34.13800     25.20900
  229     4     3     -0.18784      29.86300      33.19100     26.04100
  230     4     3     -0.18911      29.24400      33.85600     27.28100
  231     4     3     -0.24626      30.27500      34.25300     28.34700
  232     4     3     -0.18308      41.57500      33.03300     21.80100
  233     4     3     -0.17031      42.16200      31.77600     21.13100
  234     4     3     -0.18149      43.29100      31.07600     21.91000
  235     4     3     -0.17987      44.52400      31.96400     22.14800
  236     4     3     -0.14912      45.67400      31.20500     22.82500
  237     4     4     -0.07560      46.89200      32.07000     23.07600
  238     4     4     -0.13527      47.92100      32.14400     22.11400
  239     4     4     -0.13411      49.04900      32.95500     22.34500
  240     4     4     -0.14072      49.15100      33.69800     23.53700
  241     4     4     -0.13411      48.12300      33.63000     24.49800
  242     4     4     -0.13527      46.99500      32.82000     24.26700
  243     4     1      0.13325      50.01600      34.32000     23.71400
  244     4     1      0.13433      48.19900      34.20300     25.41100
  245     4     1      0.14191      46.20700      32.77600     25.00500
  246     4     1      0.14191      47.84700      31.58100     21.19500
  247     4     1      0.13433      49.83500      33.00800     21.60700
  248     4     2      0.10013      45.33900      30.79000     23.77700
  249     4     2      0.10013      45.97000      30.35000     22.21500
  250     4     2      0.09946      44.87300      32.37400     21.20000
  251     4     2      0.09946      44.25300      32.81800     22.76900
  252     4     2      0.08813      42.91400      30.70000     22.86100
  253     4     2      0.08813      43.59500      30.19100     21.34800
  254     4     2      0.08906      42.53100      32.04800     20.14000
  255     4     2      0.08906      41.35700      31.06000     20.95400
  256     4     2      0.09007      40.83400      33.45400     21.12100
  257     4     2      0.09007      42.34400      33.79700     21.90700
  258     4     2      0.08752      40.14500      31.99200     23.05900
  259     4     2      0.08752      41.65400      32.33800     23.84500
  260     4     2      0.08719      39.96100      33.74500     24.82700
  261     4     2      0.08719      41.12800      34.73400     24.00300
  262     4     2      0.09124      38.88600      35.59300     23.61900
  263     4     2      0.09124      39.55800      35.08100     22.10200
  264     4     2      0.09830      38.22600      32.96600     22.20500
  265     4     2      0.09830      37.63400      33.40400     23.79100
  266     4     2      0.09306      36.48200      35.40400     22.81800
  267     4     2      0.09306      37.15200      35.04200     21.25700
  268     4     2      0.08606      35.90000      32.92000     21.12700
  269     4     2      0.08606      34.84900      34.28700     21.29300
  270     4     2      0.08736      35.59900      32.30300     23.49400
  271     4     2      0.08736      34.08000      32.39600     22.67600
  272     4     2      0.08730      33.95500      33.38600     24.93900
  273     4     2      0.08730      35.22800      34.49600     24.57600
  274     4     2      0.08901      33.08200      35.65400     24.48000
  275     4     2      0.08901      33.82100      35.67500     22.91800
  276     4     2      0.08703      31.42300      35.23700     22.70300
  277     4     2      0.08703      32.33000      33.89000     22.09900
  278     4     2      0.08856      30.42900      33.07600     23.35900
  279     4     2      0.08856      31.87900      32.60000     24.19100
  280     4     2      0.09525      30.16800      35.02800     24.94200
  281     4     2      0.09525      31.58000      34.47900     25.81300
  282     4     2      0.08721      30.44200      32.31600     26.34200
  283     4     2      0.08721      29.05500      32.81300     25.41300
  284     4     2      0.09077      28.66300      34.73200     26.98400
  285     4     2      0.09077      28.52900      33.16400     27.72900
  286     4     2      0.08327      30.95500      35.02400     27.98500
  287     4     2      0.08327      30.87500      33.39600     28.65700
  288     4     2      0.08327      29.78200      34.64800     29.23500
  289     5     3     -0.17727      24.88400      18.18700     17.61400
  290     5     3     -0.18282      24.68600      18.26600     19.14000
  291     5     3     -0.17471      25.12000      19.53500     16.90700
  292     5     3     -0.19146      26.37800      20.27600     17.38800
  293     5     3     -0.18352      26.65600      21.54700     16.57000
  294     5     3     -0.17450      27.84100      22.37700     17.09800
  295     5     3     -0.17930      29.20500      21.65900     17.07900
  296     5     3     -0.18242      29.66500      21.15800     15.69600
  297     5     3     -0.17112      29.79800      22.25000     14.61600
  298     5     3     -0.17214      30.78300      23.38800     14.95100
  299     5     3     -0.17167      32.23000      22.94200     15.23400
  300     5     3     -0.17787      32.91200      22.25400     14.04000
  301     5     3     -0.18784      34.38500      21.91800     14.32400
  302     5     3     -0.18911      35.11900      21.30800     13.12000
  303     5     3     -0.24626      34.60900      19.91300     12.72900
  304     5     3     -0.18308      23.44700      19.07400     19.56500
  305     5     3     -0.17031      23.25100      19.15400     21.09100
  306     5     3     -0.18149      23.02400      17.80700     21.80100
  307     5     3     -0.17987      21.77400      17.05300     21.31800
  308     5     3     -0.14912      21.51200      15.77100     22.12100
  309     5     4     -0.07560      20.28800      15.01200     21.65000
  310     5     4     -0.13527      19.02900      15.26300     22.23200
  311     5     4     -0.13411      17.89100      14.56200     21.78700
  312     5     4     -0.14072      18.00800      13.61000     20.75500
  313     5     4     -0.13411      19.26400      13.36100     20.16800
  314     5     4     -0.13527      20.40100      14.06200     20.61300
  315     5     1      0.13325      17.13500      13.07300     20.41400
  316     5     1      0.13433      19.35300      12.63300     19.37500
  317     5     1      0.14191      21.36100      13.86900     20.15500
  318     5     1      0.14191      18.93100      15.99500     23.02000
  319     5     1      0.13433      16.92800      14.75600     22.23600
  320     5     2      0.10013      22.37800      15.10900     22.06200
  321     5     2      0.10013      21.39100      16.01000     23.17900
  322     5     2      0.09946      20.90100      17.70300     21.38400
  323     5     2      0.09946      21.88000      16.79100     20.26500
  324     5     2      0.08813      23.90500      17.17300     21.69400
  325     5     2      0.08813      22.93100      17.99600     22.87100
  326     5     2      0.08906      22.40500      19.81100     21.30100
  327     5     2      0.08906      24.11800      19.64700     21.53400
  328     5     2      0.09007      23.53800      20.09300     19.19000
  329     5     2      0.09007      22.55400      18.66600     19.09100
  330     5     2      0.08752      25.57900      18.67200     19.61500
  331     5     2      0.08752      24.59500      17.24500     19.51300
  332     5     2      0.08719      25.72500      17.52500     17.40200
  333     5     2      0.08719      24.01300      17.70200     17.16900
  334     5     2      0.09124      25.21200      19.34500     15.83600
  335     5     2      0.09124      24.24500      20.17600     17.01400
  336     5     2      0.09830      26.26700      20.54500     18.44000
  337     5     2      0.09830      27.23500      19.60400     17.32900
  338     5     2      0.09306      26.81700      21.29000     15.52300
  339     5     2      0.09306      25.76600      22.17700     16.58400
  340     5     2      0.08606      27.62600      22.69500     18.11800
  341     5     2      0.08606      27.91300      23.30000     16.52100
  342     5     2      0.08736      29.17900      20.81400     17.76900
  343     5     2      0.08736      29.96200      22.32800     17.48900
  344     5     2      0.08730      30.61900      20.64100     15.80500
  345     5     2      0.08730      28.97400      20.39300     15.34100
  346     5     2      0.08901      30.09200      21.78200     13.67500
  347     5     2      0.08901      28.81700      22.68200     14.41700
  348     5     2      0.08703      30.78700      24.10500     14.12800
  349     5     2      0.08703      30.41000      23.94500     15.81200
  350     5     2      0.08856      32.81000      23.82500     15.51200
  351     5     2      0.08856      32.25700      22.28800     16.10600
  352     5     2      0.09525      32.84600      22.89800     13.16200
  353     5     2      0.09525      32.37300      21.33900     13.79500
  354     5     2      0.08721      34.45400      21.24300     15.18000
  355     5     2      0.08721      34.90500      22.83000     14.62000
  356     5     2      0.09077      35.05300      21.97900     12.26200
  357     5     2      0.09077      36.18100      21.23500     13.35800
  358     5     2      0.08327      33.57700      19.94300     12.38000
  359     5     2      0.08327      34.65800      19.22200     13.57200
  360     5     2      0.08327      35.21100      19.49200     11.92300
  361     6     3     -0.17727      37.10800      28.10900     11.85800
  362     6     3     -0.18282      36.08800      28.46300     10.75900
  363     6     3     -0.17471      36.81500      28.70300     13.24800
  364     6     3     -0.19146      35.47600      28.24700     13.84900
  365     6     3     -0.18352      35.27900      28.75000     15.28800
  366     6     3     -0.17450      33.89800      28.40900     15.88000
  367     6     3     -0.17930      33.59000      26.90400     16.00400
  368     6     3     -0.18242      34.59000      26.09700     16.85600
  369     6     3     -0.17112      34.74000      26.57300     18.31400
  370     6     3     -0.17214      33.44100      26.56200     19.14500
  371     6     3     -0.17167      32.74200      25.19300     19.25300
  372     6     3     -0.17787      33.59100      24.11600     19.94800
  373     6     3     -0.18784      32.82300      22.79700     20.13000
  374     6     3     -0.18911      33.61300      21.72700     20.89900
  375     6     3     -0.24626      34.84200      21.20500     20.14100
  376     6     3     -0.18308      36.00200      29.96900     10.45300
  377     6     3     -0.17031      34.98000      30.32300      9.35500
  378     6     3     -0.18149      35.26600      29.72200      7.96700
  379     6     3     -0.17987      36.60900      30.16400      7.36300
  380     6     3     -0.14912      36.81400      29.64100      5.93500
  381     6     4     -0.07560      38.13800      30.06100      5.33000
  382     6     4     -0.13527      38.22900      31.24900      4.57500
  383     6     4     -0.13411      39.46300      31.64100      4.02000
  384     6     4     -0.14072      40.61100      30.85000      4.22200
  385     6     4     -0.13411      40.52400      29.66600      4.98000
  386     6     4     -0.13527      39.29000      29.27300      5.53400
  387     6     1      0.13325      41.55700      31.15200      3.79700
  388     6     1      0.13433      41.40500      29.06000      5.13800
  389     6     1      0.14191      39.23100      28.36600      6.11900
  390     6     1      0.14191      37.35400      31.86300      4.42000
  391     6     1      0.13433      39.52900      32.55100      3.44200
  392     6     2      0.10013      36.75500      28.55200      5.92400
  393     6     2      0.10013      36.00600      29.99000      5.28800
  394     6     2      0.09946      36.67200      31.25300      7.36000
  395     6     2      0.09946      37.43200      29.81300      7.98600
  396     6     2      0.08813      35.21900      28.63300      8.01200